
     Program PWSCF v.7.4.1 starts on 19May2026 at  6:59:11 

     This program is part of the open-source Quantum ESPRESSO suite
     for quantum simulation of materials; please cite
         "P. Giannozzi et al., J. Phys.:Condens. Matter 21 395502 (2009);
         "P. Giannozzi et al., J. Phys.:Condens. Matter 29 465901 (2017);
         "P. Giannozzi et al., J. Chem. Phys. 152 154105 (2020);
          URL http://www.quantum-espresso.org", 
     in publications or presentations arising from this work. More details at
     http://www.quantum-espresso.org/quote

     Parallel version (MPI & OpenMP), running on      64 processor cores
     Number of MPI processes:                64
     Threads/MPI process:                     1

     MPI processes distributed on     1 nodes
     77008 MiB available memory on the printing compute node when the environment starts
 
     Waiting for input...
     Reading input from standard input
Warning: card &CELL ignored
Warning: card    CELL_DYNAMICS   = 'BFGS' ignored
Warning: card    PRESS           = 0.0 ignored
Warning: card    PRESS_CONV_THR  = 0.5 ignored
Warning: card    CELL_DOFREE     = '2DXY' ignored
Warning: card    CELL_FACTOR     = 2.0 ignored
Warning: card / ignored

     Current dimensions of program PWSCF are:
     Max number of different atomic species (ntypx) = 10
     Max number of k-points (npk) =  40000
     Max angular momentum in pseudopotentials (lmaxx) =  4
     file Nb.pbe-spn-kjpaw_psl.0.3.0.UPF: wavefunction(s)  4S 4P renormalized
     file C.pbe-n-kjpaw_psl.1.0.0.UPF: wavefunction(s)  2S 2P renormalized
 
     K-points division:     npool     =       4
     R & G space division:  proc/nbgrp/npool/nimage =      16
     Subspace diagonalization in iterative solution of the eigenvalue problem:
     one sub-group per band group will be used
     scalapack distributed-memory algorithm (size of sub-group:  4*  4 procs)

 
     Parallelization info
     --------------------
     sticks:   dense  smooth     PW     G-vecs:    dense   smooth      PW
     Min         545     218     61               111103    28104    4187
     Max         546     220     62               111110    28108    4198
     Sum        8723    3501    985              1777695   449685   67059
 
     Using Slab Decomposition
 


     bravais-lattice index     =            0
     lattice parameter (alat)  =      23.7334  a.u.
     unit-cell volume          =   11028.6030 (a.u.)^3
     number of atoms/cell      =           56
     number of atomic types    =            3
     number of electrons       =       506.00
     number of Kohn-Sham states=          356
     kinetic-energy cutoff     =      45.0000  Ry
     charge density cutoff     =     450.0000  Ry
     scf convergence threshold =      1.0E-06
     mixing beta               =       0.3000
     number of iterations used =           12  local-TF  mixing
     energy convergence thresh.=      1.0E-04
     force convergence thresh. =      1.0E-03
     Exchange-correlation= SLA  PW   PBX  PBC
                           (   1   4   3   4   0   0   0)
     nstep                     =          300

     Hubbard projectors: ortho-atomic
     Hubbard parameters of DFT+U (Dudarev formulation) in eV:
     U(Ti-3d) =  4.3000
     U(Nb-4d) =  3.4000

     Internal variables: lda_plus_u = T, lda_plus_u_kind = 0

     celldm(1)=  23.733358  celldm(2)=   0.000000  celldm(3)=   0.000000
     celldm(4)=   0.000000  celldm(5)=   0.000000  celldm(6)=   0.000000

     crystal axes: (cart. coord. in units of alat)
               a(1) = (   1.000000  -0.000000   0.000000 )  
               a(2) = (  -0.249998   0.433009   0.000000 )  
               a(3) = (   0.000000   0.000000   1.905224 )  

     reciprocal axes: (cart. coord. in units 2 pi/alat)
               b(1) = (  1.000000  0.577351  0.000000 )  
               b(2) = (  0.000000  2.309421  0.000000 )  
               b(3) = (  0.000000  0.000000  0.524873 )  


     PseudoPot. # 1 for Ti read from file:
     /home/jose.borge/0.ucr/pp/ti_pbe_v1.4.uspp.F.UPF
     MD5 check sum: 88a00a6731bd790ddea75d31a80cb452
     Pseudo is Ultrasoft + core correction, Zval = 12.0
     Generated by new atomic code, or converted to UPF format
     Using radial grid of  851 points,  6 beta functions with: 
                l(1) =   0
                l(2) =   0
                l(3) =   1
                l(4) =   1
                l(5) =   2
                l(6) =   2
     Q(r) pseudized with  6 coefficients,  rinner =    1.000   1.000   1.000
                                                       1.000   1.000

     PseudoPot. # 2 for Nb read from file:
     /home/jose.borge/0.ucr/pp/Nb.pbe-spn-kjpaw_psl.0.3.0.UPF
     MD5 check sum: 411d72ad547312f8017e2943ceca08cc
     Pseudo is Projector augmented-wave + core cor, Zval = 13.0
     Generated using "atomic" code by A. Dal Corso  v.5.0.99 svn rev. 10869
     Shape of augmentation charge: PSQ
     Using radial grid of 1227 points,  6 beta functions with: 
                l(1) =   0
                l(2) =   0
                l(3) =   1
                l(4) =   1
                l(5) =   2
                l(6) =   2
     Q(r) pseudized with 0 coefficients 


     PseudoPot. # 3 for C  read from file:
     /home/jose.borge/0.ucr/pp/C.pbe-n-kjpaw_psl.1.0.0.UPF
     MD5 check sum: 5d2aebdfa2cae82b50a7e79e9516da0f
     Pseudo is Projector augmented-wave + core cor, Zval =  4.0
     Generated using "atomic" code by A. Dal Corso  v.5.1
     Shape of augmentation charge: PSQ
     Using radial grid of 1073 points,  4 beta functions with: 
                l(1) =   0
                l(2) =   0
                l(3) =   1
                l(4) =   1
     Q(r) pseudized with 0 coefficients 


     atomic species   valence    mass     pseudopotential
     Ti               12.00    47.86700     Ti( 1.00)
     Nb               13.00    92.90600     Nb( 1.00)
     C                 4.00    12.01100     C ( 1.00)

     Starting magnetic structure 
     atomic species   magnetization
     Ti              0.250
     Nb              0.000
     C               0.000

     No symmetry found



   Cartesian axes

     site n.     atom                  positions (alat units)
         1        Ti     tau(   1) = (   0.0894842   0.1972875   1.2588291  )
         2        Ti     tau(   2) = (  -0.0347016   0.4123836   1.2588295  )
         3        Ti     tau(   3) = (   0.7136713   0.4123839   1.2588295  )
         4        Ti     tau(   4) = (   0.2136716   0.4123839   1.2588292  )
         5        Ti     tau(   5) = (   0.5894837   0.1972886   1.2588295  )
         6        Ti     tau(   6) = (   0.4652980   0.4123843   1.2588298  )
         7        Nb     tau(   7) = (   0.0894851   0.0520160   1.0635733  )
         8        Nb     tau(   8) = (   0.3394855   0.0520065   1.0619819  )
         9        Nb     tau(   9) = (  -0.0355048   0.2685257   1.0619810  )
        10        Nb     tau(  10) = (   0.2144780   0.2685256   1.0619816  )
        11        Nb     tau(  11) = (  -0.0356573   0.1242771   0.8509080  )
        12        Nb     tau(  12) = (  -0.1605092   0.3405266   0.8509081  )
        13        Nb     tau(  13) = (   0.2146365   0.1242764   0.8509110  )
        14        Nb     tau(  14) = (   0.3394842   0.1963492   1.2589624  )
        15        Nb     tau(  15) = (   0.2146276   0.4129459   0.6518149  )
        16        Nb     tau(  16) = (   0.3394937   0.1963649   0.6516845  )
        17        Nb     tau(  17) = (  -0.0356489   0.4129529   0.6518258  )
        18        Nb     tau(  18) = (   0.0894904   0.3406960   0.8494506  )
        19        Nb     tau(  19) = (   0.0894946   0.1961986   0.6518263  )
        20        Nb     tau(  20) = (   0.5894859   0.0520171   1.0635724  )
        21        Nb     tau(  21) = (   0.8394855   0.0520077   1.0619812  )
        22        Nb     tau(  22) = (   0.4644949   0.2685263   1.0619809  )
        23        Nb     tau(  23) = (   0.7144783   0.2685261   1.0619810  )
        24        Nb     tau(  24) = (   0.4643450   0.1242749   0.8509072  )
        25        Nb     tau(  25) = (   0.3394900   0.3405301   0.8509067  )
        26        Nb     tau(  26) = (   0.7146336   0.1242755   0.8509046  )
        27        Nb     tau(  27) = (   0.8394841   0.1963493   1.2589619  )
        28        Nb     tau(  28) = (   0.7146325   0.4129493   0.6518271  )
        29        Nb     tau(  29) = (   0.8394890   0.1963629   0.6516727  )
        30        Nb     tau(  30) = (   0.4643585   0.4129426   0.6518161  )
        31        Nb     tau(  31) = (   0.5894904   0.3406971   0.8494574  )
        32        Nb     tau(  32) = (   0.5894887   0.1962115   0.6518159  )
        33        C      tau(  33) = (  -0.0344874   0.1235886   1.1707928  )
        34        C      tau(  34) = (   0.2134563   0.1235879   1.1707930  )
        35        C      tau(  35) = (   0.0894918   0.0520273   0.7434276  )
        36        C      tau(  36) = (   0.2145405   0.4128907   0.9558232  )
        37        C      tau(  37) = (  -0.1605144   0.3418738   1.1707929  )
        38        C      tau(  38) = (   0.0894857   0.3406861   1.1704618  )
        39        C      tau(  39) = (  -0.0354261   0.2685781   0.7434692  )
        40        C      tau(  40) = (   0.3394912   0.0519289   0.7434739  )
        41        C      tau(  41) = (   0.2144073   0.2685796   0.7434733  )
        42        C      tau(  42) = (   0.3394892   0.1963571   0.9559481  )
        43        C      tau(  43) = (  -0.0355621   0.4128903   0.9558245  )
        44        C      tau(  44) = (   0.0894881   0.1962970   0.9558245  )
        45        C      tau(  45) = (   0.4655128   0.1235889   1.1707922  )
        46        C      tau(  46) = (   0.7134558   0.1235887   1.1707925  )
        47        C      tau(  47) = (   0.5894881   0.0520255   0.7434155  )
        48        C      tau(  48) = (   0.7145411   0.4128913   0.9558253  )
        49        C      tau(  49) = (   0.3394857   0.3418742   1.1707923  )
        50        C      tau(  50) = (   0.5894853   0.3406869   1.1704615  )
        51        C      tau(  51) = (   0.4645739   0.2685790   0.7434807  )
        52        C      tau(  52) = (   0.8394891   0.0519322   0.7434760  )
        53        C      tau(  53) = (   0.7144088   0.2685779   0.7434771  )
        54        C      tau(  54) = (   0.8394872   0.1963563   0.9559462  )
        55        C      tau(  55) = (   0.4644369   0.4128918   0.9558240  )
        56        C      tau(  56) = (   0.5894883   0.1962969   0.9558241  )

     number of k points=   128  Marzari-Vanderbilt smearing, width (Ry)=  0.0110

     Number of k-points >= 100: set verbosity='high' to print them.

     Dense  grid:  1777695 G-vectors     FFT dimensions: ( 162,  81, 320)

     Smooth grid:   449685 G-vectors     FFT dimensions: ( 108,  54, 200)

     Estimated max dynamical RAM per process >       2.06 GB

     Estimated total dynamical RAM >     127.79 GB

     Check: negative core charge=   -0.000002
     Generating pointlists ...
     new r_m :   0.0695 (alat units)  1.6490 (a.u.) for type    1
     new r_m :   0.0702 (alat units)  1.6658 (a.u.) for type    2
     new r_m :   0.0695 (alat units)  1.6490 (a.u.) for type    3

     Initial potential from superposition of free atoms

     starting charge     499.9436, renormalised to     506.0000

     negative rho (up, down):  5.140E-03 3.317E-03

     STARTING HUBBARD OCCUPATIONS:

     =================== HUBBARD OCCUPATIONS ===================
     ------------------------ ATOM    1 ------------------------
     Tr[ns(  1)] (up, down, total) =   1.00000  0.00000  1.00000
     Atomic magnetic moment for atom   1 =   1.00000
     SPIN  1
     eigenvalues:
       0.200  0.200  0.200  0.200  0.200
     eigenvectors (columns):
       1.000  0.000  0.000  0.000  0.000
       0.000  1.000  0.000  0.000  0.000
       0.000  0.000  1.000  0.000  0.000
       0.000  0.000  0.000  1.000  0.000
       0.000  0.000  0.000  0.000  1.000
     occupation matrix ns (before diag.):
       0.200  0.000  0.000  0.000  0.000
       0.000  0.200  0.000  0.000  0.000
       0.000  0.000  0.200  0.000  0.000
       0.000  0.000  0.000  0.200  0.000
       0.000  0.000  0.000  0.000  0.200
     SPIN  2
     eigenvalues:
       0.000  0.000  0.000  0.000  0.000
     eigenvectors (columns):
       1.000  0.000  0.000  0.000  0.000
       0.000  1.000  0.000  0.000  0.000
       0.000  0.000  1.000  0.000  0.000
       0.000  0.000  0.000  1.000  0.000
       0.000  0.000  0.000  0.000  1.000
     occupation matrix ns (before diag.):
       0.000  0.000  0.000  0.000  0.000
       0.000  0.000  0.000  0.000  0.000
       0.000  0.000  0.000  0.000  0.000
       0.000  0.000  0.000  0.000  0.000
       0.000  0.000  0.000  0.000  0.000
     ------------------------ ATOM    2 ------------------------
     Tr[ns(  2)] (up, down, total) =   1.00000  0.00000  1.00000
     Atomic magnetic moment for atom   2 =   1.00000
     SPIN  1
     eigenvalues:
       0.200  0.200  0.200  0.200  0.200
     eigenvectors (columns):
       1.000  0.000  0.000  0.000  0.000
       0.000  1.000  0.000  0.000  0.000
       0.000  0.000  1.000  0.000  0.000
       0.000  0.000  0.000  1.000  0.000
       0.000  0.000  0.000  0.000  1.000
     occupation matrix ns (before diag.):
       0.200  0.000  0.000  0.000  0.000
       0.000  0.200  0.000  0.000  0.000
       0.000  0.000  0.200  0.000  0.000
       0.000  0.000  0.000  0.200  0.000
       0.000  0.000  0.000  0.000  0.200
     SPIN  2
     eigenvalues:
       0.000  0.000  0.000  0.000  0.000
     eigenvectors (columns):
       1.000  0.000  0.000  0.000  0.000
       0.000  1.000  0.000  0.000  0.000
       0.000  0.000  1.000  0.000  0.000
       0.000  0.000  0.000  1.000  0.000
       0.000  0.000  0.000  0.000  1.000
     occupation matrix ns (before diag.):
       0.000  0.000  0.000  0.000  0.000
       0.000  0.000  0.000  0.000  0.000
       0.000  0.000  0.000  0.000  0.000
       0.000  0.000  0.000  0.000  0.000
       0.000  0.000  0.000  0.000  0.000
     ------------------------ ATOM    3 ------------------------
     Tr[ns(  3)] (up, down, total) =   1.00000  0.00000  1.00000
     Atomic magnetic moment for atom   3 =   1.00000
     SPIN  1
     eigenvalues:
       0.200  0.200  0.200  0.200  0.200
     eigenvectors (columns):
       1.000  0.000  0.000  0.000  0.000
       0.000  1.000  0.000  0.000  0.000
       0.000  0.000  1.000  0.000  0.000
       0.000  0.000  0.000  1.000  0.000
       0.000  0.000  0.000  0.000  1.000
     occupation matrix ns (before diag.):
       0.200  0.000  0.000  0.000  0.000
       0.000  0.200  0.000  0.000  0.000
       0.000  0.000  0.200  0.000  0.000
       0.000  0.000  0.000  0.200  0.000
       0.000  0.000  0.000  0.000  0.200
     SPIN  2
     eigenvalues:
       0.000  0.000  0.000  0.000  0.000
     eigenvectors (columns):
       1.000  0.000  0.000  0.000  0.000
       0.000  1.000  0.000  0.000  0.000
       0.000  0.000  1.000  0.000  0.000
       0.000  0.000  0.000  1.000  0.000
       0.000  0.000  0.000  0.000  1.000
     occupation matrix ns (before diag.):
       0.000  0.000  0.000  0.000  0.000
       0.000  0.000  0.000  0.000  0.000
       0.000  0.000  0.000  0.000  0.000
       0.000  0.000  0.000  0.000  0.000
       0.000  0.000  0.000  0.000  0.000
     ------------------------ ATOM    4 ------------------------
     Tr[ns(  4)] (up, down, total) =   1.00000  0.00000  1.00000
     Atomic magnetic moment for atom   4 =   1.00000
     SPIN  1
     eigenvalues:
       0.200  0.200  0.200  0.200  0.200
     eigenvectors (columns):
       1.000  0.000  0.000  0.000  0.000
       0.000  1.000  0.000  0.000  0.000
       0.000  0.000  1.000  0.000  0.000
       0.000  0.000  0.000  1.000  0.000
       0.000  0.000  0.000  0.000  1.000
     occupation matrix ns (before diag.):
       0.200  0.000  0.000  0.000  0.000
       0.000  0.200  0.000  0.000  0.000
       0.000  0.000  0.200  0.000  0.000
       0.000  0.000  0.000  0.200  0.000
       0.000  0.000  0.000  0.000  0.200
     SPIN  2
     eigenvalues:
       0.000  0.000  0.000  0.000  0.000
     eigenvectors (columns):
       1.000  0.000  0.000  0.000  0.000
       0.000  1.000  0.000  0.000  0.000
       0.000  0.000  1.000  0.000  0.000
       0.000  0.000  0.000  1.000  0.000
       0.000  0.000  0.000  0.000  1.000
     occupation matrix ns (before diag.):
       0.000  0.000  0.000  0.000  0.000
       0.000  0.000  0.000  0.000  0.000
       0.000  0.000  0.000  0.000  0.000
       0.000  0.000  0.000  0.000  0.000
       0.000  0.000  0.000  0.000  0.000
     ------------------------ ATOM    5 ------------------------
     Tr[ns(  5)] (up, down, total) =   1.00000  0.00000  1.00000
     Atomic magnetic moment for atom   5 =   1.00000
     SPIN  1
     eigenvalues:
       0.200  0.200  0.200  0.200  0.200
     eigenvectors (columns):
       1.000  0.000  0.000  0.000  0.000
       0.000  1.000  0.000  0.000  0.000
       0.000  0.000  1.000  0.000  0.000
       0.000  0.000  0.000  1.000  0.000
       0.000  0.000  0.000  0.000  1.000
     occupation matrix ns (before diag.):
       0.200  0.000  0.000  0.000  0.000
       0.000  0.200  0.000  0.000  0.000
       0.000  0.000  0.200  0.000  0.000
       0.000  0.000  0.000  0.200  0.000
       0.000  0.000  0.000  0.000  0.200
     SPIN  2
     eigenvalues:
       0.000  0.000  0.000  0.000  0.000
     eigenvectors (columns):
       1.000  0.000  0.000  0.000  0.000
       0.000  1.000  0.000  0.000  0.000
       0.000  0.000  1.000  0.000  0.000
       0.000  0.000  0.000  1.000  0.000
       0.000  0.000  0.000  0.000  1.000
     occupation matrix ns (before diag.):
       0.000  0.000  0.000  0.000  0.000
       0.000  0.000  0.000  0.000  0.000
       0.000  0.000  0.000  0.000  0.000
       0.000  0.000  0.000  0.000  0.000
       0.000  0.000  0.000  0.000  0.000
     ------------------------ ATOM    6 ------------------------
     Tr[ns(  6)] (up, down, total) =   1.00000  0.00000  1.00000
     Atomic magnetic moment for atom   6 =   1.00000
     SPIN  1
     eigenvalues:
       0.200  0.200  0.200  0.200  0.200
     eigenvectors (columns):
       1.000  0.000  0.000  0.000  0.000
       0.000  1.000  0.000  0.000  0.000
       0.000  0.000  1.000  0.000  0.000
       0.000  0.000  0.000  1.000  0.000
       0.000  0.000  0.000  0.000  1.000
     occupation matrix ns (before diag.):
       0.200  0.000  0.000  0.000  0.000
       0.000  0.200  0.000  0.000  0.000
       0.000  0.000  0.200  0.000  0.000
       0.000  0.000  0.000  0.200  0.000
       0.000  0.000  0.000  0.000  0.200
     SPIN  2
     eigenvalues:
       0.000  0.000  0.000  0.000  0.000
     eigenvectors (columns):
       1.000  0.000  0.000  0.000  0.000
       0.000  1.000  0.000  0.000  0.000
       0.000  0.000  1.000  0.000  0.000
       0.000  0.000  0.000  1.000  0.000
       0.000  0.000  0.000  0.000  1.000
     occupation matrix ns (before diag.):
       0.000  0.000  0.000  0.000  0.000
       0.000  0.000  0.000  0.000  0.000
       0.000  0.000  0.000  0.000  0.000
       0.000  0.000  0.000  0.000  0.000
       0.000  0.000  0.000  0.000  0.000
     ------------------------ ATOM    7 ------------------------
     Tr[ns(  7)] (up, down, total) =   2.00000  2.00000  4.00000
     Atomic magnetic moment for atom   7 =   0.00000
     SPIN  1
     eigenvalues:
       0.400  0.400  0.400  0.400  0.400
     eigenvectors (columns):
       1.000  0.000  0.000  0.000  0.000
       0.000  1.000  0.000  0.000  0.000
       0.000  0.000  1.000  0.000  0.000
       0.000  0.000  0.000  1.000  0.000
       0.000  0.000  0.000  0.000  1.000
     occupation matrix ns (before diag.):
       0.400  0.000  0.000  0.000  0.000
       0.000  0.400  0.000  0.000  0.000
       0.000  0.000  0.400  0.000  0.000
       0.000  0.000  0.000  0.400  0.000
       0.000  0.000  0.000  0.000  0.400
     SPIN  2
     eigenvalues:
       0.400  0.400  0.400  0.400  0.400
     eigenvectors (columns):
       1.000  0.000  0.000  0.000  0.000
       0.000  1.000  0.000  0.000  0.000
       0.000  0.000  1.000  0.000  0.000
       0.000  0.000  0.000  1.000  0.000
       0.000  0.000  0.000  0.000  1.000
     occupation matrix ns (before diag.):
       0.400  0.000  0.000  0.000  0.000
       0.000  0.400  0.000  0.000  0.000
       0.000  0.000  0.400  0.000  0.000
       0.000  0.000  0.000  0.400  0.000
       0.000  0.000  0.000  0.000  0.400
     ------------------------ ATOM    8 ------------------------
     Tr[ns(  8)] (up, down, total) =   2.00000  2.00000  4.00000
     Atomic magnetic moment for atom   8 =   0.00000
     SPIN  1
     eigenvalues:
       0.400  0.400  0.400  0.400  0.400
     eigenvectors (columns):
       1.000  0.000  0.000  0.000  0.000
       0.000  1.000  0.000  0.000  0.000
       0.000  0.000  1.000  0.000  0.000
       0.000  0.000  0.000  1.000  0.000
       0.000  0.000  0.000  0.000  1.000
     occupation matrix ns (before diag.):
       0.400  0.000  0.000  0.000  0.000
       0.000  0.400  0.000  0.000  0.000
       0.000  0.000  0.400  0.000  0.000
       0.000  0.000  0.000  0.400  0.000
       0.000  0.000  0.000  0.000  0.400
     SPIN  2
     eigenvalues:
       0.400  0.400  0.400  0.400  0.400
     eigenvectors (columns):
       1.000  0.000  0.000  0.000  0.000
       0.000  1.000  0.000  0.000  0.000
       0.000  0.000  1.000  0.000  0.000
       0.000  0.000  0.000  1.000  0.000
       0.000  0.000  0.000  0.000  1.000
     occupation matrix ns (before diag.):
       0.400  0.000  0.000  0.000  0.000
       0.000  0.400  0.000  0.000  0.000
       0.000  0.000  0.400  0.000  0.000
       0.000  0.000  0.000  0.400  0.000
       0.000  0.000  0.000  0.000  0.400
     ------------------------ ATOM    9 ------------------------
     Tr[ns(  9)] (up, down, total) =   2.00000  2.00000  4.00000
     Atomic magnetic moment for atom   9 =   0.00000
     SPIN  1
     eigenvalues:
       0.400  0.400  0.400  0.400  0.400
     eigenvectors (columns):
       1.000  0.000  0.000  0.000  0.000
       0.000  1.000  0.000  0.000  0.000
       0.000  0.000  1.000  0.000  0.000
       0.000  0.000  0.000  1.000  0.000
       0.000  0.000  0.000  0.000  1.000
     occupation matrix ns (before diag.):
       0.400  0.000  0.000  0.000  0.000
       0.000  0.400  0.000  0.000  0.000
       0.000  0.000  0.400  0.000  0.000
       0.000  0.000  0.000  0.400  0.000
       0.000  0.000  0.000  0.000  0.400
     SPIN  2
     eigenvalues:
       0.400  0.400  0.400  0.400  0.400
     eigenvectors (columns):
       1.000  0.000  0.000  0.000  0.000
       0.000  1.000  0.000  0.000  0.000
       0.000  0.000  1.000  0.000  0.000
       0.000  0.000  0.000  1.000  0.000
       0.000  0.000  0.000  0.000  1.000
     occupation matrix ns (before diag.):
       0.400  0.000  0.000  0.000  0.000
       0.000  0.400  0.000  0.000  0.000
       0.000  0.000  0.400  0.000  0.000
       0.000  0.000  0.000  0.400  0.000
       0.000  0.000  0.000  0.000  0.400
     ------------------------ ATOM   10 ------------------------
     Tr[ns( 10)] (up, down, total) =   2.00000  2.00000  4.00000
     Atomic magnetic moment for atom  10 =   0.00000
     SPIN  1
     eigenvalues:
       0.400  0.400  0.400  0.400  0.400
     eigenvectors (columns):
       1.000  0.000  0.000  0.000  0.000
       0.000  1.000  0.000  0.000  0.000
       0.000  0.000  1.000  0.000  0.000
       0.000  0.000  0.000  1.000  0.000
       0.000  0.000  0.000  0.000  1.000
     occupation matrix ns (before diag.):
       0.400  0.000  0.000  0.000  0.000
       0.000  0.400  0.000  0.000  0.000
       0.000  0.000  0.400  0.000  0.000
       0.000  0.000  0.000  0.400  0.000
       0.000  0.000  0.000  0.000  0.400
     SPIN  2
     eigenvalues:
       0.400  0.400  0.400  0.400  0.400
     eigenvectors (columns):
       1.000  0.000  0.000  0.000  0.000
       0.000  1.000  0.000  0.000  0.000
       0.000  0.000  1.000  0.000  0.000
       0.000  0.000  0.000  1.000  0.000
       0.000  0.000  0.000  0.000  1.000
     occupation matrix ns (before diag.):
       0.400  0.000  0.000  0.000  0.000
       0.000  0.400  0.000  0.000  0.000
       0.000  0.000  0.400  0.000  0.000
       0.000  0.000  0.000  0.400  0.000
       0.000  0.000  0.000  0.000  0.400
     ------------------------ ATOM   11 ------------------------
     Tr[ns( 11)] (up, down, total) =   2.00000  2.00000  4.00000
     Atomic magnetic moment for atom  11 =   0.00000
     SPIN  1
     eigenvalues:
       0.400  0.400  0.400  0.400  0.400
     eigenvectors (columns):
       1.000  0.000  0.000  0.000  0.000
       0.000  1.000  0.000  0.000  0.000
       0.000  0.000  1.000  0.000  0.000
       0.000  0.000  0.000  1.000  0.000
       0.000  0.000  0.000  0.000  1.000
     occupation matrix ns (before diag.):
       0.400  0.000  0.000  0.000  0.000
       0.000  0.400  0.000  0.000  0.000
       0.000  0.000  0.400  0.000  0.000
       0.000  0.000  0.000  0.400  0.000
       0.000  0.000  0.000  0.000  0.400
     SPIN  2
     eigenvalues:
       0.400  0.400  0.400  0.400  0.400
     eigenvectors (columns):
       1.000  0.000  0.000  0.000  0.000
       0.000  1.000  0.000  0.000  0.000
       0.000  0.000  1.000  0.000  0.000
       0.000  0.000  0.000  1.000  0.000
       0.000  0.000  0.000  0.000  1.000
     occupation matrix ns (before diag.):
       0.400  0.000  0.000  0.000  0.000
       0.000  0.400  0.000  0.000  0.000
       0.000  0.000  0.400  0.000  0.000
       0.000  0.000  0.000  0.400  0.000
       0.000  0.000  0.000  0.000  0.400
     ------------------------ ATOM   12 ------------------------
     Tr[ns( 12)] (up, down, total) =   2.00000  2.00000  4.00000
     Atomic magnetic moment for atom  12 =   0.00000
     SPIN  1
     eigenvalues:
       0.400  0.400  0.400  0.400  0.400
     eigenvectors (columns):
       1.000  0.000  0.000  0.000  0.000
       0.000  1.000  0.000  0.000  0.000
       0.000  0.000  1.000  0.000  0.000
       0.000  0.000  0.000  1.000  0.000
       0.000  0.000  0.000  0.000  1.000
     occupation matrix ns (before diag.):
       0.400  0.000  0.000  0.000  0.000
       0.000  0.400  0.000  0.000  0.000
       0.000  0.000  0.400  0.000  0.000
       0.000  0.000  0.000  0.400  0.000
       0.000  0.000  0.000  0.000  0.400
     SPIN  2
     eigenvalues:
       0.400  0.400  0.400  0.400  0.400
     eigenvectors (columns):
       1.000  0.000  0.000  0.000  0.000
       0.000  1.000  0.000  0.000  0.000
       0.000  0.000  1.000  0.000  0.000
       0.000  0.000  0.000  1.000  0.000
       0.000  0.000  0.000  0.000  1.000
     occupation matrix ns (before diag.):
       0.400  0.000  0.000  0.000  0.000
       0.000  0.400  0.000  0.000  0.000
       0.000  0.000  0.400  0.000  0.000
       0.000  0.000  0.000  0.400  0.000
       0.000  0.000  0.000  0.000  0.400
     ------------------------ ATOM   13 ------------------------
     Tr[ns( 13)] (up, down, total) =   2.00000  2.00000  4.00000
     Atomic magnetic moment for atom  13 =   0.00000
     SPIN  1
     eigenvalues:
       0.400  0.400  0.400  0.400  0.400
     eigenvectors (columns):
       1.000  0.000  0.000  0.000  0.000
       0.000  1.000  0.000  0.000  0.000
       0.000  0.000  1.000  0.000  0.000
       0.000  0.000  0.000  1.000  0.000
       0.000  0.000  0.000  0.000  1.000
     occupation matrix ns (before diag.):
       0.400  0.000  0.000  0.000  0.000
       0.000  0.400  0.000  0.000  0.000
       0.000  0.000  0.400  0.000  0.000
       0.000  0.000  0.000  0.400  0.000
       0.000  0.000  0.000  0.000  0.400
     SPIN  2
     eigenvalues:
       0.400  0.400  0.400  0.400  0.400
     eigenvectors (columns):
       1.000  0.000  0.000  0.000  0.000
       0.000  1.000  0.000  0.000  0.000
       0.000  0.000  1.000  0.000  0.000
       0.000  0.000  0.000  1.000  0.000
       0.000  0.000  0.000  0.000  1.000
     occupation matrix ns (before diag.):
       0.400  0.000  0.000  0.000  0.000
       0.000  0.400  0.000  0.000  0.000
       0.000  0.000  0.400  0.000  0.000
       0.000  0.000  0.000  0.400  0.000
       0.000  0.000  0.000  0.000  0.400
     ------------------------ ATOM   14 ------------------------
     Tr[ns( 14)] (up, down, total) =   2.00000  2.00000  4.00000
     Atomic magnetic moment for atom  14 =   0.00000
     SPIN  1
     eigenvalues:
       0.400  0.400  0.400  0.400  0.400
     eigenvectors (columns):
       1.000  0.000  0.000  0.000  0.000
       0.000  1.000  0.000  0.000  0.000
       0.000  0.000  1.000  0.000  0.000
       0.000  0.000  0.000  1.000  0.000
       0.000  0.000  0.000  0.000  1.000
     occupation matrix ns (before diag.):
       0.400  0.000  0.000  0.000  0.000
       0.000  0.400  0.000  0.000  0.000
       0.000  0.000  0.400  0.000  0.000
       0.000  0.000  0.000  0.400  0.000
       0.000  0.000  0.000  0.000  0.400
     SPIN  2
     eigenvalues:
       0.400  0.400  0.400  0.400  0.400
     eigenvectors (columns):
       1.000  0.000  0.000  0.000  0.000
       0.000  1.000  0.000  0.000  0.000
       0.000  0.000  1.000  0.000  0.000
       0.000  0.000  0.000  1.000  0.000
       0.000  0.000  0.000  0.000  1.000
     occupation matrix ns (before diag.):
       0.400  0.000  0.000  0.000  0.000
       0.000  0.400  0.000  0.000  0.000
       0.000  0.000  0.400  0.000  0.000
       0.000  0.000  0.000  0.400  0.000
       0.000  0.000  0.000  0.000  0.400
     ------------------------ ATOM   15 ------------------------
     Tr[ns( 15)] (up, down, total) =   2.00000  2.00000  4.00000
     Atomic magnetic moment for atom  15 =   0.00000
     SPIN  1
     eigenvalues:
       0.400  0.400  0.400  0.400  0.400
     eigenvectors (columns):
       1.000  0.000  0.000  0.000  0.000
       0.000  1.000  0.000  0.000  0.000
       0.000  0.000  1.000  0.000  0.000
       0.000  0.000  0.000  1.000  0.000
       0.000  0.000  0.000  0.000  1.000
     occupation matrix ns (before diag.):
       0.400  0.000  0.000  0.000  0.000
       0.000  0.400  0.000  0.000  0.000
       0.000  0.000  0.400  0.000  0.000
       0.000  0.000  0.000  0.400  0.000
       0.000  0.000  0.000  0.000  0.400
     SPIN  2
     eigenvalues:
       0.400  0.400  0.400  0.400  0.400
     eigenvectors (columns):
       1.000  0.000  0.000  0.000  0.000
       0.000  1.000  0.000  0.000  0.000
       0.000  0.000  1.000  0.000  0.000
       0.000  0.000  0.000  1.000  0.000
       0.000  0.000  0.000  0.000  1.000
     occupation matrix ns (before diag.):
       0.400  0.000  0.000  0.000  0.000
       0.000  0.400  0.000  0.000  0.000
       0.000  0.000  0.400  0.000  0.000
       0.000  0.000  0.000  0.400  0.000
       0.000  0.000  0.000  0.000  0.400
     ------------------------ ATOM   16 ------------------------
     Tr[ns( 16)] (up, down, total) =   2.00000  2.00000  4.00000
     Atomic magnetic moment for atom  16 =   0.00000
     SPIN  1
     eigenvalues:
       0.400  0.400  0.400  0.400  0.400
     eigenvectors (columns):
       1.000  0.000  0.000  0.000  0.000
       0.000  1.000  0.000  0.000  0.000
       0.000  0.000  1.000  0.000  0.000
       0.000  0.000  0.000  1.000  0.000
       0.000  0.000  0.000  0.000  1.000
     occupation matrix ns (before diag.):
       0.400  0.000  0.000  0.000  0.000
       0.000  0.400  0.000  0.000  0.000
       0.000  0.000  0.400  0.000  0.000
       0.000  0.000  0.000  0.400  0.000
       0.000  0.000  0.000  0.000  0.400
     SPIN  2
     eigenvalues:
       0.400  0.400  0.400  0.400  0.400
     eigenvectors (columns):
       1.000  0.000  0.000  0.000  0.000
       0.000  1.000  0.000  0.000  0.000
       0.000  0.000  1.000  0.000  0.000
       0.000  0.000  0.000  1.000  0.000
       0.000  0.000  0.000  0.000  1.000
     occupation matrix ns (before diag.):
       0.400  0.000  0.000  0.000  0.000
       0.000  0.400  0.000  0.000  0.000
       0.000  0.000  0.400  0.000  0.000
       0.000  0.000  0.000  0.400  0.000
       0.000  0.000  0.000  0.000  0.400
     ------------------------ ATOM   17 ------------------------
     Tr[ns( 17)] (up, down, total) =   2.00000  2.00000  4.00000
     Atomic magnetic moment for atom  17 =   0.00000
     SPIN  1
     eigenvalues:
       0.400  0.400  0.400  0.400  0.400
     eigenvectors (columns):
       1.000  0.000  0.000  0.000  0.000
       0.000  1.000  0.000  0.000  0.000
       0.000  0.000  1.000  0.000  0.000
       0.000  0.000  0.000  1.000  0.000
       0.000  0.000  0.000  0.000  1.000
     occupation matrix ns (before diag.):
       0.400  0.000  0.000  0.000  0.000
       0.000  0.400  0.000  0.000  0.000
       0.000  0.000  0.400  0.000  0.000
       0.000  0.000  0.000  0.400  0.000
       0.000  0.000  0.000  0.000  0.400
     SPIN  2
     eigenvalues:
       0.400  0.400  0.400  0.400  0.400
     eigenvectors (columns):
       1.000  0.000  0.000  0.000  0.000
       0.000  1.000  0.000  0.000  0.000
       0.000  0.000  1.000  0.000  0.000
       0.000  0.000  0.000  1.000  0.000
       0.000  0.000  0.000  0.000  1.000
     occupation matrix ns (before diag.):
       0.400  0.000  0.000  0.000  0.000
       0.000  0.400  0.000  0.000  0.000
       0.000  0.000  0.400  0.000  0.000
       0.000  0.000  0.000  0.400  0.000
       0.000  0.000  0.000  0.000  0.400
     ------------------------ ATOM   18 ------------------------
     Tr[ns( 18)] (up, down, total) =   2.00000  2.00000  4.00000
     Atomic magnetic moment for atom  18 =   0.00000
     SPIN  1
     eigenvalues:
       0.400  0.400  0.400  0.400  0.400
     eigenvectors (columns):
       1.000  0.000  0.000  0.000  0.000
       0.000  1.000  0.000  0.000  0.000
       0.000  0.000  1.000  0.000  0.000
       0.000  0.000  0.000  1.000  0.000
       0.000  0.000  0.000  0.000  1.000
     occupation matrix ns (before diag.):
       0.400  0.000  0.000  0.000  0.000
       0.000  0.400  0.000  0.000  0.000
       0.000  0.000  0.400  0.000  0.000
       0.000  0.000  0.000  0.400  0.000
       0.000  0.000  0.000  0.000  0.400
     SPIN  2
     eigenvalues:
       0.400  0.400  0.400  0.400  0.400
     eigenvectors (columns):
       1.000  0.000  0.000  0.000  0.000
       0.000  1.000  0.000  0.000  0.000
       0.000  0.000  1.000  0.000  0.000
       0.000  0.000  0.000  1.000  0.000
       0.000  0.000  0.000  0.000  1.000
     occupation matrix ns (before diag.):
       0.400  0.000  0.000  0.000  0.000
       0.000  0.400  0.000  0.000  0.000
       0.000  0.000  0.400  0.000  0.000
       0.000  0.000  0.000  0.400  0.000
       0.000  0.000  0.000  0.000  0.400
     ------------------------ ATOM   19 ------------------------
     Tr[ns( 19)] (up, down, total) =   2.00000  2.00000  4.00000
     Atomic magnetic moment for atom  19 =   0.00000
     SPIN  1
     eigenvalues:
       0.400  0.400  0.400  0.400  0.400
     eigenvectors (columns):
       1.000  0.000  0.000  0.000  0.000
       0.000  1.000  0.000  0.000  0.000
       0.000  0.000  1.000  0.000  0.000
       0.000  0.000  0.000  1.000  0.000
       0.000  0.000  0.000  0.000  1.000
     occupation matrix ns (before diag.):
       0.400  0.000  0.000  0.000  0.000
       0.000  0.400  0.000  0.000  0.000
       0.000  0.000  0.400  0.000  0.000
       0.000  0.000  0.000  0.400  0.000
       0.000  0.000  0.000  0.000  0.400
     SPIN  2
     eigenvalues:
       0.400  0.400  0.400  0.400  0.400
     eigenvectors (columns):
       1.000  0.000  0.000  0.000  0.000
       0.000  1.000  0.000  0.000  0.000
       0.000  0.000  1.000  0.000  0.000
       0.000  0.000  0.000  1.000  0.000
       0.000  0.000  0.000  0.000  1.000
     occupation matrix ns (before diag.):
       0.400  0.000  0.000  0.000  0.000
       0.000  0.400  0.000  0.000  0.000
       0.000  0.000  0.400  0.000  0.000
       0.000  0.000  0.000  0.400  0.000
       0.000  0.000  0.000  0.000  0.400
     ------------------------ ATOM   20 ------------------------
     Tr[ns( 20)] (up, down, total) =   2.00000  2.00000  4.00000
     Atomic magnetic moment for atom  20 =   0.00000
     SPIN  1
     eigenvalues:
       0.400  0.400  0.400  0.400  0.400
     eigenvectors (columns):
       1.000  0.000  0.000  0.000  0.000
       0.000  1.000  0.000  0.000  0.000
       0.000  0.000  1.000  0.000  0.000
       0.000  0.000  0.000  1.000  0.000
       0.000  0.000  0.000  0.000  1.000
     occupation matrix ns (before diag.):
       0.400  0.000  0.000  0.000  0.000
       0.000  0.400  0.000  0.000  0.000
       0.000  0.000  0.400  0.000  0.000
       0.000  0.000  0.000  0.400  0.000
       0.000  0.000  0.000  0.000  0.400
     SPIN  2
     eigenvalues:
       0.400  0.400  0.400  0.400  0.400
     eigenvectors (columns):
       1.000  0.000  0.000  0.000  0.000
       0.000  1.000  0.000  0.000  0.000
       0.000  0.000  1.000  0.000  0.000
       0.000  0.000  0.000  1.000  0.000
       0.000  0.000  0.000  0.000  1.000
     occupation matrix ns (before diag.):
       0.400  0.000  0.000  0.000  0.000
       0.000  0.400  0.000  0.000  0.000
       0.000  0.000  0.400  0.000  0.000
       0.000  0.000  0.000  0.400  0.000
       0.000  0.000  0.000  0.000  0.400
     ------------------------ ATOM   21 ------------------------
     Tr[ns( 21)] (up, down, total) =   2.00000  2.00000  4.00000
     Atomic magnetic moment for atom  21 =   0.00000
     SPIN  1
     eigenvalues:
       0.400  0.400  0.400  0.400  0.400
     eigenvectors (columns):
       1.000  0.000  0.000  0.000  0.000
       0.000  1.000  0.000  0.000  0.000
       0.000  0.000  1.000  0.000  0.000
       0.000  0.000  0.000  1.000  0.000
       0.000  0.000  0.000  0.000  1.000
     occupation matrix ns (before diag.):
       0.400  0.000  0.000  0.000  0.000
       0.000  0.400  0.000  0.000  0.000
       0.000  0.000  0.400  0.000  0.000
       0.000  0.000  0.000  0.400  0.000
       0.000  0.000  0.000  0.000  0.400
     SPIN  2
     eigenvalues:
       0.400  0.400  0.400  0.400  0.400
     eigenvectors (columns):
       1.000  0.000  0.000  0.000  0.000
       0.000  1.000  0.000  0.000  0.000
       0.000  0.000  1.000  0.000  0.000
       0.000  0.000  0.000  1.000  0.000
       0.000  0.000  0.000  0.000  1.000
     occupation matrix ns (before diag.):
       0.400  0.000  0.000  0.000  0.000
       0.000  0.400  0.000  0.000  0.000
       0.000  0.000  0.400  0.000  0.000
       0.000  0.000  0.000  0.400  0.000
       0.000  0.000  0.000  0.000  0.400
     ------------------------ ATOM   22 ------------------------
     Tr[ns( 22)] (up, down, total) =   2.00000  2.00000  4.00000
     Atomic magnetic moment for atom  22 =   0.00000
     SPIN  1
     eigenvalues:
       0.400  0.400  0.400  0.400  0.400
     eigenvectors (columns):
       1.000  0.000  0.000  0.000  0.000
       0.000  1.000  0.000  0.000  0.000
       0.000  0.000  1.000  0.000  0.000
       0.000  0.000  0.000  1.000  0.000
       0.000  0.000  0.000  0.000  1.000
     occupation matrix ns (before diag.):
       0.400  0.000  0.000  0.000  0.000
       0.000  0.400  0.000  0.000  0.000
       0.000  0.000  0.400  0.000  0.000
       0.000  0.000  0.000  0.400  0.000
       0.000  0.000  0.000  0.000  0.400
     SPIN  2
     eigenvalues:
       0.400  0.400  0.400  0.400  0.400
     eigenvectors (columns):
       1.000  0.000  0.000  0.000  0.000
       0.000  1.000  0.000  0.000  0.000
       0.000  0.000  1.000  0.000  0.000
       0.000  0.000  0.000  1.000  0.000
       0.000  0.000  0.000  0.000  1.000
     occupation matrix ns (before diag.):
       0.400  0.000  0.000  0.000  0.000
       0.000  0.400  0.000  0.000  0.000
       0.000  0.000  0.400  0.000  0.000
       0.000  0.000  0.000  0.400  0.000
       0.000  0.000  0.000  0.000  0.400
     ------------------------ ATOM   23 ------------------------
     Tr[ns( 23)] (up, down, total) =   2.00000  2.00000  4.00000
     Atomic magnetic moment for atom  23 =   0.00000
     SPIN  1
     eigenvalues:
       0.400  0.400  0.400  0.400  0.400
     eigenvectors (columns):
       1.000  0.000  0.000  0.000  0.000
       0.000  1.000  0.000  0.000  0.000
       0.000  0.000  1.000  0.000  0.000
       0.000  0.000  0.000  1.000  0.000
       0.000  0.000  0.000  0.000  1.000
     occupation matrix ns (before diag.):
       0.400  0.000  0.000  0.000  0.000
       0.000  0.400  0.000  0.000  0.000
       0.000  0.000  0.400  0.000  0.000
       0.000  0.000  0.000  0.400  0.000
       0.000  0.000  0.000  0.000  0.400
     SPIN  2
     eigenvalues:
       0.400  0.400  0.400  0.400  0.400
     eigenvectors (columns):
       1.000  0.000  0.000  0.000  0.000
       0.000  1.000  0.000  0.000  0.000
       0.000  0.000  1.000  0.000  0.000
       0.000  0.000  0.000  1.000  0.000
       0.000  0.000  0.000  0.000  1.000
     occupation matrix ns (before diag.):
       0.400  0.000  0.000  0.000  0.000
       0.000  0.400  0.000  0.000  0.000
       0.000  0.000  0.400  0.000  0.000
       0.000  0.000  0.000  0.400  0.000
       0.000  0.000  0.000  0.000  0.400
     ------------------------ ATOM   24 ------------------------
     Tr[ns( 24)] (up, down, total) =   2.00000  2.00000  4.00000
     Atomic magnetic moment for atom  24 =   0.00000
     SPIN  1
     eigenvalues:
       0.400  0.400  0.400  0.400  0.400
     eigenvectors (columns):
       1.000  0.000  0.000  0.000  0.000
       0.000  1.000  0.000  0.000  0.000
       0.000  0.000  1.000  0.000  0.000
       0.000  0.000  0.000  1.000  0.000
       0.000  0.000  0.000  0.000  1.000
     occupation matrix ns (before diag.):
       0.400  0.000  0.000  0.000  0.000
       0.000  0.400  0.000  0.000  0.000
       0.000  0.000  0.400  0.000  0.000
       0.000  0.000  0.000  0.400  0.000
       0.000  0.000  0.000  0.000  0.400
     SPIN  2
     eigenvalues:
       0.400  0.400  0.400  0.400  0.400
     eigenvectors (columns):
       1.000  0.000  0.000  0.000  0.000
       0.000  1.000  0.000  0.000  0.000
       0.000  0.000  1.000  0.000  0.000
       0.000  0.000  0.000  1.000  0.000
       0.000  0.000  0.000  0.000  1.000
     occupation matrix ns (before diag.):
       0.400  0.000  0.000  0.000  0.000
       0.000  0.400  0.000  0.000  0.000
       0.000  0.000  0.400  0.000  0.000
       0.000  0.000  0.000  0.400  0.000
       0.000  0.000  0.000  0.000  0.400
     ------------------------ ATOM   25 ------------------------
     Tr[ns( 25)] (up, down, total) =   2.00000  2.00000  4.00000
     Atomic magnetic moment for atom  25 =   0.00000
     SPIN  1
     eigenvalues:
       0.400  0.400  0.400  0.400  0.400
     eigenvectors (columns):
       1.000  0.000  0.000  0.000  0.000
       0.000  1.000  0.000  0.000  0.000
       0.000  0.000  1.000  0.000  0.000
       0.000  0.000  0.000  1.000  0.000
       0.000  0.000  0.000  0.000  1.000
     occupation matrix ns (before diag.):
       0.400  0.000  0.000  0.000  0.000
       0.000  0.400  0.000  0.000  0.000
       0.000  0.000  0.400  0.000  0.000
       0.000  0.000  0.000  0.400  0.000
       0.000  0.000  0.000  0.000  0.400
     SPIN  2
     eigenvalues:
       0.400  0.400  0.400  0.400  0.400
     eigenvectors (columns):
       1.000  0.000  0.000  0.000  0.000
       0.000  1.000  0.000  0.000  0.000
       0.000  0.000  1.000  0.000  0.000
       0.000  0.000  0.000  1.000  0.000
       0.000  0.000  0.000  0.000  1.000
     occupation matrix ns (before diag.):
       0.400  0.000  0.000  0.000  0.000
       0.000  0.400  0.000  0.000  0.000
       0.000  0.000  0.400  0.000  0.000
       0.000  0.000  0.000  0.400  0.000
       0.000  0.000  0.000  0.000  0.400
     ------------------------ ATOM   26 ------------------------
     Tr[ns( 26)] (up, down, total) =   2.00000  2.00000  4.00000
     Atomic magnetic moment for atom  26 =   0.00000
     SPIN  1
     eigenvalues:
       0.400  0.400  0.400  0.400  0.400
     eigenvectors (columns):
       1.000  0.000  0.000  0.000  0.000
       0.000  1.000  0.000  0.000  0.000
       0.000  0.000  1.000  0.000  0.000
       0.000  0.000  0.000  1.000  0.000
       0.000  0.000  0.000  0.000  1.000
     occupation matrix ns (before diag.):
       0.400  0.000  0.000  0.000  0.000
       0.000  0.400  0.000  0.000  0.000
       0.000  0.000  0.400  0.000  0.000
       0.000  0.000  0.000  0.400  0.000
       0.000  0.000  0.000  0.000  0.400
     SPIN  2
     eigenvalues:
       0.400  0.400  0.400  0.400  0.400
     eigenvectors (columns):
       1.000  0.000  0.000  0.000  0.000
       0.000  1.000  0.000  0.000  0.000
       0.000  0.000  1.000  0.000  0.000
       0.000  0.000  0.000  1.000  0.000
       0.000  0.000  0.000  0.000  1.000
     occupation matrix ns (before diag.):
       0.400  0.000  0.000  0.000  0.000
       0.000  0.400  0.000  0.000  0.000
       0.000  0.000  0.400  0.000  0.000
       0.000  0.000  0.000  0.400  0.000
       0.000  0.000  0.000  0.000  0.400
     ------------------------ ATOM   27 ------------------------
     Tr[ns( 27)] (up, down, total) =   2.00000  2.00000  4.00000
     Atomic magnetic moment for atom  27 =   0.00000
     SPIN  1
     eigenvalues:
       0.400  0.400  0.400  0.400  0.400
     eigenvectors (columns):
       1.000  0.000  0.000  0.000  0.000
       0.000  1.000  0.000  0.000  0.000
       0.000  0.000  1.000  0.000  0.000
       0.000  0.000  0.000  1.000  0.000
       0.000  0.000  0.000  0.000  1.000
     occupation matrix ns (before diag.):
       0.400  0.000  0.000  0.000  0.000
       0.000  0.400  0.000  0.000  0.000
       0.000  0.000  0.400  0.000  0.000
       0.000  0.000  0.000  0.400  0.000
       0.000  0.000  0.000  0.000  0.400
     SPIN  2
     eigenvalues:
       0.400  0.400  0.400  0.400  0.400
     eigenvectors (columns):
       1.000  0.000  0.000  0.000  0.000
       0.000  1.000  0.000  0.000  0.000
       0.000  0.000  1.000  0.000  0.000
       0.000  0.000  0.000  1.000  0.000
       0.000  0.000  0.000  0.000  1.000
     occupation matrix ns (before diag.):
       0.400  0.000  0.000  0.000  0.000
       0.000  0.400  0.000  0.000  0.000
       0.000  0.000  0.400  0.000  0.000
       0.000  0.000  0.000  0.400  0.000
       0.000  0.000  0.000  0.000  0.400
     ------------------------ ATOM   28 ------------------------
     Tr[ns( 28)] (up, down, total) =   2.00000  2.00000  4.00000
     Atomic magnetic moment for atom  28 =   0.00000
     SPIN  1
     eigenvalues:
       0.400  0.400  0.400  0.400  0.400
     eigenvectors (columns):
       1.000  0.000  0.000  0.000  0.000
       0.000  1.000  0.000  0.000  0.000
       0.000  0.000  1.000  0.000  0.000
       0.000  0.000  0.000  1.000  0.000
       0.000  0.000  0.000  0.000  1.000
     occupation matrix ns (before diag.):
       0.400  0.000  0.000  0.000  0.000
       0.000  0.400  0.000  0.000  0.000
       0.000  0.000  0.400  0.000  0.000
       0.000  0.000  0.000  0.400  0.000
       0.000  0.000  0.000  0.000  0.400
     SPIN  2
     eigenvalues:
       0.400  0.400  0.400  0.400  0.400
     eigenvectors (columns):
       1.000  0.000  0.000  0.000  0.000
       0.000  1.000  0.000  0.000  0.000
       0.000  0.000  1.000  0.000  0.000
       0.000  0.000  0.000  1.000  0.000
       0.000  0.000  0.000  0.000  1.000
     occupation matrix ns (before diag.):
       0.400  0.000  0.000  0.000  0.000
       0.000  0.400  0.000  0.000  0.000
       0.000  0.000  0.400  0.000  0.000
       0.000  0.000  0.000  0.400  0.000
       0.000  0.000  0.000  0.000  0.400
     ------------------------ ATOM   29 ------------------------
     Tr[ns( 29)] (up, down, total) =   2.00000  2.00000  4.00000
     Atomic magnetic moment for atom  29 =   0.00000
     SPIN  1
     eigenvalues:
       0.400  0.400  0.400  0.400  0.400
     eigenvectors (columns):
       1.000  0.000  0.000  0.000  0.000
       0.000  1.000  0.000  0.000  0.000
       0.000  0.000  1.000  0.000  0.000
       0.000  0.000  0.000  1.000  0.000
       0.000  0.000  0.000  0.000  1.000
     occupation matrix ns (before diag.):
       0.400  0.000  0.000  0.000  0.000
       0.000  0.400  0.000  0.000  0.000
       0.000  0.000  0.400  0.000  0.000
       0.000  0.000  0.000  0.400  0.000
       0.000  0.000  0.000  0.000  0.400
     SPIN  2
     eigenvalues:
       0.400  0.400  0.400  0.400  0.400
     eigenvectors (columns):
       1.000  0.000  0.000  0.000  0.000
       0.000  1.000  0.000  0.000  0.000
       0.000  0.000  1.000  0.000  0.000
       0.000  0.000  0.000  1.000  0.000
       0.000  0.000  0.000  0.000  1.000
     occupation matrix ns (before diag.):
       0.400  0.000  0.000  0.000  0.000
       0.000  0.400  0.000  0.000  0.000
       0.000  0.000  0.400  0.000  0.000
       0.000  0.000  0.000  0.400  0.000
       0.000  0.000  0.000  0.000  0.400
     ------------------------ ATOM   30 ------------------------
     Tr[ns( 30)] (up, down, total) =   2.00000  2.00000  4.00000
     Atomic magnetic moment for atom  30 =   0.00000
     SPIN  1
     eigenvalues:
       0.400  0.400  0.400  0.400  0.400
     eigenvectors (columns):
       1.000  0.000  0.000  0.000  0.000
       0.000  1.000  0.000  0.000  0.000
       0.000  0.000  1.000  0.000  0.000
       0.000  0.000  0.000  1.000  0.000
       0.000  0.000  0.000  0.000  1.000
     occupation matrix ns (before diag.):
       0.400  0.000  0.000  0.000  0.000
       0.000  0.400  0.000  0.000  0.000
       0.000  0.000  0.400  0.000  0.000
       0.000  0.000  0.000  0.400  0.000
       0.000  0.000  0.000  0.000  0.400
     SPIN  2
     eigenvalues:
       0.400  0.400  0.400  0.400  0.400
     eigenvectors (columns):
       1.000  0.000  0.000  0.000  0.000
       0.000  1.000  0.000  0.000  0.000
       0.000  0.000  1.000  0.000  0.000
       0.000  0.000  0.000  1.000  0.000
       0.000  0.000  0.000  0.000  1.000
     occupation matrix ns (before diag.):
       0.400  0.000  0.000  0.000  0.000
       0.000  0.400  0.000  0.000  0.000
       0.000  0.000  0.400  0.000  0.000
       0.000  0.000  0.000  0.400  0.000
       0.000  0.000  0.000  0.000  0.400
     ------------------------ ATOM   31 ------------------------
     Tr[ns( 31)] (up, down, total) =   2.00000  2.00000  4.00000
     Atomic magnetic moment for atom  31 =   0.00000
     SPIN  1
     eigenvalues:
       0.400  0.400  0.400  0.400  0.400
     eigenvectors (columns):
       1.000  0.000  0.000  0.000  0.000
       0.000  1.000  0.000  0.000  0.000
       0.000  0.000  1.000  0.000  0.000
       0.000  0.000  0.000  1.000  0.000
       0.000  0.000  0.000  0.000  1.000
     occupation matrix ns (before diag.):
       0.400  0.000  0.000  0.000  0.000
       0.000  0.400  0.000  0.000  0.000
       0.000  0.000  0.400  0.000  0.000
       0.000  0.000  0.000  0.400  0.000
       0.000  0.000  0.000  0.000  0.400
     SPIN  2
     eigenvalues:
       0.400  0.400  0.400  0.400  0.400
     eigenvectors (columns):
       1.000  0.000  0.000  0.000  0.000
       0.000  1.000  0.000  0.000  0.000
       0.000  0.000  1.000  0.000  0.000
       0.000  0.000  0.000  1.000  0.000
       0.000  0.000  0.000  0.000  1.000
     occupation matrix ns (before diag.):
       0.400  0.000  0.000  0.000  0.000
       0.000  0.400  0.000  0.000  0.000
       0.000  0.000  0.400  0.000  0.000
       0.000  0.000  0.000  0.400  0.000
       0.000  0.000  0.000  0.000  0.400
     ------------------------ ATOM   32 ------------------------
     Tr[ns( 32)] (up, down, total) =   2.00000  2.00000  4.00000
     Atomic magnetic moment for atom  32 =   0.00000
     SPIN  1
     eigenvalues:
       0.400  0.400  0.400  0.400  0.400
     eigenvectors (columns):
       1.000  0.000  0.000  0.000  0.000
       0.000  1.000  0.000  0.000  0.000
       0.000  0.000  1.000  0.000  0.000
       0.000  0.000  0.000  1.000  0.000
       0.000  0.000  0.000  0.000  1.000
     occupation matrix ns (before diag.):
       0.400  0.000  0.000  0.000  0.000
       0.000  0.400  0.000  0.000  0.000
       0.000  0.000  0.400  0.000  0.000
       0.000  0.000  0.000  0.400  0.000
       0.000  0.000  0.000  0.000  0.400
     SPIN  2
     eigenvalues:
       0.400  0.400  0.400  0.400  0.400
     eigenvectors (columns):
       1.000  0.000  0.000  0.000  0.000
       0.000  1.000  0.000  0.000  0.000
       0.000  0.000  1.000  0.000  0.000
       0.000  0.000  0.000  1.000  0.000
       0.000  0.000  0.000  0.000  1.000
     occupation matrix ns (before diag.):
       0.400  0.000  0.000  0.000  0.000
       0.000  0.400  0.000  0.000  0.000
       0.000  0.000  0.400  0.000  0.000
       0.000  0.000  0.000  0.400  0.000
       0.000  0.000  0.000  0.000  0.400

     Number of occupied Hubbard levels =  110.0000

     Atomic wfc used for Hubbard projectors are orthogonalized

     Starting wfcs are  416 randomized atomic wfcs
     Checking if some PAW data can be deallocated... 

     total cpu time spent up to now is      227.2 secs

     per-process dynamical memory:   121.6 Mb

     Self-consistent Calculation

     iteration #  1     ecut=    45.00 Ry     beta= 0.30
     Davidson diagonalization with overlap
     ethr =  1.00E-02,  avg # of iterations =  9.6

     =================== HUBBARD OCCUPATIONS ===================
     ------------------------ ATOM    1 ------------------------
     Tr[ns(  1)] (up, down, total) =   4.98641  4.96364  9.95006
     Atomic magnetic moment for atom   1 =   0.02277
     SPIN  1
     eigenvalues:
       0.997  0.997  0.997  0.998  0.998
     eigenvectors (columns):
       0.747  0.009 -0.579  0.002  0.326
       0.006 -0.681 -0.004 -0.732  0.001
      -0.339  0.002 -0.754 -0.001 -0.563
       0.572  0.002  0.310 -0.001 -0.760
      -0.005  0.732  0.004 -0.681  0.001
     occupation matrix ns (before diag.):
       0.997 -0.000 -0.000 -0.000 -0.000
      -0.000  0.997  0.000 -0.000  0.000
      -0.000  0.000  0.997  0.000 -0.000
      -0.000 -0.000  0.000  0.997  0.000
      -0.000  0.000 -0.000  0.000  0.997
     SPIN  2
     eigenvalues:
       0.991  0.992  0.993  0.994  0.994
     eigenvectors (columns):
      -0.913  0.001  0.408  0.001  0.000
      -0.000  0.238 -0.001 -0.002  0.971
      -0.060  0.001 -0.136  0.989  0.001
      -0.403 -0.002 -0.903 -0.149 -0.001
       0.000  0.971 -0.002 -0.001 -0.238
     occupation matrix ns (before diag.):
       0.992 -0.000 -0.000 -0.001 -0.000
      -0.000  0.994 -0.000 -0.000 -0.000
      -0.000 -0.000  0.994 -0.000 -0.000
      -0.001 -0.000 -0.000  0.992  0.000
      -0.000 -0.000 -0.000  0.000  0.992
     ------------------------ ATOM    2 ------------------------
     Tr[ns(  2)] (up, down, total) =   4.98641  4.96365  9.95006
     Atomic magnetic moment for atom   2 =   0.02276
     SPIN  1
     eigenvalues:
       0.997  0.997  0.997  0.998  0.998
     eigenvectors (columns):
      -0.745  0.003  0.581 -0.000 -0.326
       0.296  0.342  0.651  0.366  0.487
      -0.169  0.589 -0.378  0.634 -0.282
       0.286 -0.634  0.156  0.590 -0.380
      -0.497 -0.366 -0.266  0.341  0.657
     occupation matrix ns (before diag.):
       0.997 -0.000  0.000  0.000 -0.000
      -0.000  0.997 -0.000 -0.000  0.000
       0.000 -0.000  0.997  0.000 -0.000
       0.000 -0.000  0.000  0.997 -0.000
      -0.000  0.000 -0.000 -0.000  0.997
     SPIN  2
     eigenvalues:
       0.991  0.992  0.993  0.994  0.994
     eigenvectors (columns):
       0.913  0.003 -0.408 -0.001 -0.000
       0.051  0.120  0.118 -0.853 -0.491
      -0.030  0.206 -0.068  0.500 -0.838
      -0.203  0.843 -0.447 -0.075  0.206
       0.349  0.482  0.784  0.129  0.120
     occupation matrix ns (before diag.):
       0.992 -0.000  0.000  0.000 -0.000
      -0.000  0.994  0.000 -0.000 -0.000
       0.000  0.000  0.994 -0.000 -0.000
       0.000 -0.000 -0.000  0.992 -0.000
      -0.000 -0.000 -0.000 -0.000  0.992
     ------------------------ ATOM    3 ------------------------
     Tr[ns(  3)] (up, down, total) =   4.98642  4.96365  9.95007
     Atomic magnetic moment for atom   3 =   0.02277
     SPIN  1
     eigenvalues:
       0.997  0.997  0.997  0.998  0.998
     eigenvectors (columns):
       0.745 -0.002  0.582  0.000  0.327
       0.296  0.339 -0.652  0.367  0.487
       0.170 -0.588 -0.376 -0.636  0.281
      -0.285  0.636  0.154 -0.588  0.380
      -0.497 -0.366  0.266  0.340  0.658
     occupation matrix ns (before diag.):
       0.997  0.000  0.000  0.000  0.000
       0.000  0.997  0.000  0.000  0.000
       0.000  0.000  0.997  0.000  0.000
       0.000  0.000  0.000  0.997  0.000
       0.000  0.000  0.000  0.000  0.997
     SPIN  2
     eigenvalues:
       0.991  0.992  0.993  0.994  0.994
     eigenvectors (columns):
       0.913  0.000  0.408  0.001 -0.000
      -0.053  0.118  0.117  0.857  0.485
      -0.031 -0.205  0.068  0.494 -0.842
      -0.201 -0.842  0.451 -0.074  0.205
      -0.349  0.485  0.783 -0.128 -0.118
     occupation matrix ns (before diag.):
       0.992  0.000  0.000  0.000  0.000
       0.000  0.994 -0.000  0.000 -0.000
       0.000 -0.000  0.994 -0.000  0.000
       0.000  0.000 -0.000  0.992  0.000
       0.000 -0.000  0.000  0.000  0.992
     ------------------------ ATOM    4 ------------------------
     Tr[ns(  4)] (up, down, total) =   4.98642  4.96364  9.95006
     Atomic magnetic moment for atom   4 =   0.02277
     SPIN  1
     eigenvalues:
       0.997  0.997  0.997  0.998  0.998
     eigenvectors (columns):
       0.744  0.001  0.582 -0.000  0.327
       0.296  0.340 -0.652  0.367  0.487
       0.172 -0.588 -0.377 -0.635  0.281
      -0.288  0.635  0.153 -0.589  0.380
      -0.496 -0.367  0.266  0.340  0.658
     occupation matrix ns (before diag.):
       0.997  0.000  0.000  0.000  0.000
       0.000  0.997  0.000  0.000  0.000
       0.000  0.000  0.997  0.000  0.000
       0.000  0.000  0.000  0.997  0.000
       0.000  0.000  0.000  0.000  0.997
     SPIN  2
     eigenvalues:
       0.991  0.992  0.993  0.994  0.994
     eigenvectors (columns):
       0.913 -0.001  0.408 -0.000 -0.001
      -0.052  0.120  0.117  0.849  0.498
      -0.030 -0.206  0.066  0.507 -0.834
      -0.202 -0.841  0.451 -0.076  0.205
      -0.350  0.485  0.782 -0.126 -0.122
     occupation matrix ns (before diag.):
       0.992  0.000  0.000  0.000  0.000
       0.000  0.994 -0.000  0.000 -0.000
       0.000 -0.000  0.994 -0.000  0.000
       0.000  0.000 -0.000  0.992  0.000
       0.000 -0.000  0.000  0.000  0.992
     ------------------------ ATOM    5 ------------------------
     Tr[ns(  5)] (up, down, total) =   4.98641  4.96365  9.95006
     Atomic magnetic moment for atom   5 =   0.02277
     SPIN  1
     eigenvalues:
       0.997  0.997  0.997  0.998  0.998
     eigenvectors (columns):
      -0.745  0.000  0.582  0.000 -0.326
       0.000  0.681 -0.001  0.732  0.000
       0.342  0.000  0.753  0.000  0.563
      -0.573  0.000 -0.308 -0.001  0.760
      -0.000 -0.732 -0.000  0.681  0.000
     occupation matrix ns (before diag.):
       0.997  0.000 -0.000 -0.000 -0.000
       0.000  0.997  0.000 -0.000  0.000
      -0.000  0.000  0.997  0.000  0.000
      -0.000 -0.000  0.000  0.997  0.000
      -0.000  0.000  0.000  0.000  0.997
     SPIN  2
     eigenvalues:
       0.991  0.992  0.993  0.994  0.994
     eigenvectors (columns):
       0.913  0.002 -0.408 -0.001  0.000
      -0.000  0.239  0.001 -0.011  0.971
       0.060 -0.000  0.136 -0.989 -0.011
       0.404 -0.000  0.903  0.149  0.001
      -0.001  0.971  0.001  0.003 -0.239
     occupation matrix ns (before diag.):
       0.992  0.000 -0.000 -0.001  0.000
       0.000  0.994 -0.000  0.000 -0.000
      -0.000 -0.000  0.994 -0.000  0.000
      -0.001  0.000 -0.000  0.992  0.000
       0.000 -0.000  0.000  0.000  0.992
     ------------------------ ATOM    6 ------------------------
     Tr[ns(  6)] (up, down, total) =   4.98642  4.96365  9.95007
     Atomic magnetic moment for atom   6 =   0.02276
     SPIN  1
     eigenvalues:
       0.997  0.997  0.997  0.998  0.998
     eigenvectors (columns):
      -0.748 -0.009  0.578  0.001 -0.326
       0.292  0.336  0.656  0.367  0.487
      -0.172  0.593 -0.372  0.633 -0.281
       0.288 -0.634  0.148  0.590 -0.380
      -0.493 -0.366 -0.272  0.341  0.658
     occupation matrix ns (before diag.):
       0.997 -0.000  0.000  0.000 -0.000
      -0.000  0.997 -0.000 -0.000  0.000
       0.000 -0.000  0.997  0.000 -0.000
       0.000 -0.000  0.000  0.997 -0.000
      -0.000  0.000 -0.000 -0.000  0.997
     SPIN  2
     eigenvalues:
       0.991  0.992  0.993  0.994  0.994
     eigenvectors (columns):
       0.913  0.002 -0.407 -0.002 -0.001
       0.052  0.120  0.121 -0.854 -0.489
      -0.031  0.207 -0.069  0.498 -0.839
      -0.202  0.841 -0.450 -0.076  0.207
       0.348  0.485  0.782  0.132  0.120
     occupation matrix ns (before diag.):
       0.992 -0.000  0.000  0.000 -0.000
      -0.000  0.994  0.000 -0.000 -0.000
       0.000  0.000  0.994 -0.000 -0.000
       0.000 -0.000 -0.000  0.992 -0.000
      -0.000 -0.000 -0.000 -0.000  0.992
     ------------------------ ATOM    7 ------------------------
     Tr[ns(  7)] (up, down, total) =   1.30149  1.25029  2.55179
     Atomic magnetic moment for atom   7 =   0.05120
     SPIN  1
     eigenvalues:
       0.206  0.206  0.295  0.297  0.297
     eigenvectors (columns):
      -0.000 -0.000 -1.000 -0.008 -0.001
      -0.398 -0.625 -0.002  0.152  0.654
       0.625 -0.398  0.005 -0.655  0.151
      -0.567  0.361  0.006 -0.722  0.167
       0.361  0.567 -0.002  0.167  0.722
     occupation matrix ns (before diag.):
       0.295 -0.000  0.000  0.000  0.000
      -0.000  0.247  0.000 -0.000  0.045
       0.000  0.000  0.247  0.045 -0.000
       0.000 -0.000  0.045  0.256  0.000
       0.000  0.045 -0.000  0.000  0.256
     SPIN  2
     eigenvalues:
       0.204  0.204  0.271  0.271  0.300
     eigenvectors (columns):
      -0.000 -0.000 -0.001  0.000  1.000
      -0.174  0.715  0.149  0.661 -0.000
       0.715  0.174  0.660 -0.149  0.001
      -0.658 -0.160  0.718 -0.162  0.001
       0.161 -0.658  0.162  0.718 -0.000
     occupation matrix ns (before diag.):
       0.300 -0.000  0.000  0.000 -0.000
      -0.000  0.235 -0.000 -0.000  0.033
       0.000 -0.000  0.235  0.033 -0.000
       0.000 -0.000  0.033  0.240 -0.000
      -0.000  0.033 -0.000 -0.000  0.240
     ------------------------ ATOM    8 ------------------------
     Tr[ns(  8)] (up, down, total) =   1.07875  1.06183  2.14058
     Atomic magnetic moment for atom   8 =   0.01691
     SPIN  1
     eigenvalues:
       0.186  0.194  0.195  0.250  0.254
     eigenvectors (columns):
       0.284 -0.000 -0.095  0.001 -0.954
      -0.001 -0.739  0.000 -0.673 -0.001
      -0.552  0.001  0.797 -0.000 -0.244
      -0.784  0.001 -0.596 -0.000 -0.174
       0.002  0.673 -0.000 -0.739 -0.000
     occupation matrix ns (before diag.):
       0.248  0.000  0.015  0.012 -0.000
       0.000  0.219  0.000  0.000  0.027
       0.015  0.000  0.196 -0.002  0.000
       0.012  0.000 -0.002  0.191  0.000
      -0.000  0.027  0.000  0.000  0.225
     SPIN  2
     eigenvalues:
       0.173  0.194  0.195  0.246  0.253
     eigenvectors (columns):
       0.125 -0.063 -0.001  0.003 -0.990
       0.000 -0.016  0.755 -0.656 -0.002
      -0.590  0.798  0.017 -0.000 -0.125
      -0.798 -0.599 -0.013 -0.000 -0.063
       0.001  0.014 -0.656 -0.755 -0.002
     occupation matrix ns (before diag.):
       0.252  0.000  0.009  0.006  0.000
       0.000  0.217  0.000  0.000  0.026
       0.009  0.000  0.188 -0.009  0.000
       0.006  0.000 -0.009  0.181  0.000
       0.000  0.026  0.000  0.000  0.224
     ------------------------ ATOM    9 ------------------------
     Tr[ns(  9)] (up, down, total) =   1.07954  1.06271  2.14225
     Atomic magnetic moment for atom   9 =   0.01683
     SPIN  1
     eigenvalues:
       0.186  0.194  0.195  0.250  0.254
     eigenvectors (columns):
      -0.285 -0.000 -0.096 -0.001  0.954
      -0.475 -0.370 -0.692 -0.337 -0.212
      -0.275  0.639 -0.400  0.584 -0.121
      -0.393 -0.584  0.297  0.640 -0.086
      -0.681  0.337  0.513 -0.369 -0.152
     occupation matrix ns (before diag.):
       0.248 -0.013 -0.008 -0.006 -0.010
      -0.013  0.202 -0.010 -0.013  0.006
      -0.008 -0.010  0.214  0.020 -0.013
      -0.006 -0.013  0.020  0.216 -0.014
      -0.010  0.006 -0.013 -0.014  0.200
     SPIN  2
     eigenvalues:
       0.174  0.194  0.195  0.247  0.253
     eigenvectors (columns):
       0.126  0.063  0.002  0.001  0.990
       0.509  0.703 -0.358 -0.328 -0.109
       0.294  0.381  0.664  0.568 -0.064
       0.399 -0.283 -0.576  0.654 -0.032
       0.692 -0.526  0.314 -0.377 -0.054
     occupation matrix ns (before diag.):
       0.252 -0.008 -0.004 -0.003 -0.005
      -0.008  0.195 -0.013 -0.015 -0.001
      -0.004 -0.013  0.210  0.017 -0.015
      -0.003 -0.015  0.017  0.214 -0.019
      -0.005 -0.001 -0.015 -0.019  0.192
     ------------------------ ATOM   10 ------------------------
     Tr[ns( 10)] (up, down, total) =   1.07798  1.06107  2.13905
     Atomic magnetic moment for atom  10 =   0.01691
     SPIN  1
     eigenvalues:
       0.185  0.194  0.195  0.249  0.254
     eigenvectors (columns):
       0.284 -0.004  0.094 -0.003 -0.954
      -0.480  0.399 -0.672 -0.338 -0.210
       0.277  0.622  0.426 -0.583  0.124
       0.391 -0.569 -0.324 -0.640  0.089
      -0.677 -0.360  0.503 -0.370 -0.149
     occupation matrix ns (before diag.):
       0.248  0.013 -0.008 -0.006  0.010
       0.013  0.202  0.010  0.013  0.006
      -0.008  0.010  0.213  0.020  0.013
      -0.006  0.013  0.020  0.216  0.014
       0.010  0.006  0.013  0.014  0.199
     SPIN  2
     eigenvalues:
       0.173  0.194  0.195  0.246  0.253
     eigenvectors (columns):
      -0.125 -0.062  0.007  0.004  0.990
       0.511  0.729  0.298  0.328  0.107
      -0.295 -0.323  0.694  0.568 -0.065
      -0.399  0.234 -0.598  0.653 -0.034
       0.691 -0.553 -0.268  0.377  0.053
     occupation matrix ns (before diag.):
       0.251  0.008 -0.004 -0.003  0.005
       0.008  0.195  0.013  0.015 -0.001
      -0.004  0.013  0.210  0.017  0.015
      -0.003  0.015  0.017  0.213  0.019
       0.005 -0.001  0.015  0.019  0.192
     ------------------------ ATOM   11 ------------------------
     Tr[ns( 11)] (up, down, total) =   0.07892  0.07892  0.15784
     Atomic magnetic moment for atom  11 =   0.00000
     SPIN  1
     eigenvalues:
       0.008  0.008  0.011  0.026  0.027
     eigenvectors (columns):
      -0.009 -0.001  1.000  0.000  0.005
       0.429 -0.206  0.008 -0.433 -0.765
      -0.204 -0.433 -0.004 -0.763  0.435
      -0.378 -0.793 -0.003  0.417 -0.235
       0.795 -0.377  0.005  0.237  0.413
     occupation matrix ns (before diag.):
       0.011 -0.000  0.000 -0.000  0.000
      -0.000  0.022 -0.000  0.000 -0.008
       0.000 -0.000  0.022 -0.008  0.000
      -0.000  0.000 -0.008  0.012  0.000
       0.000 -0.008  0.000  0.000  0.012
     SPIN  2
     eigenvalues:
       0.008  0.008  0.011  0.026  0.027
     eigenvectors (columns):
      -0.007 -0.001  1.000  0.000  0.008
       0.427 -0.211  0.009 -0.438 -0.762
      -0.208 -0.432 -0.005 -0.760  0.440
      -0.385 -0.789 -0.002  0.416 -0.237
       0.791 -0.384  0.002  0.240  0.411
     occupation matrix ns (before diag.):
       0.011 -0.000  0.000 -0.000  0.000
      -0.000  0.022 -0.000  0.000 -0.008
       0.000 -0.000  0.022 -0.008  0.000
      -0.000  0.000 -0.008  0.012  0.000
       0.000 -0.008  0.000  0.000  0.012
     ------------------------ ATOM   12 ------------------------
     Tr[ns( 12)] (up, down, total) =   0.07891  0.07892  0.15783
     Atomic magnetic moment for atom  12 =  -0.00000
     SPIN  1
     eigenvalues:
       0.008  0.008  0.011  0.026  0.027
     eigenvectors (columns):
      -0.010 -0.001 -1.000 -0.000 -0.005
       0.018 -0.479 -0.000  0.878  0.006
       0.475  0.018 -0.009 -0.006  0.880
       0.879  0.034 -0.006  0.003 -0.475
       0.034 -0.877  0.000 -0.479 -0.003
     occupation matrix ns (before diag.):
       0.011 -0.000 -0.000  0.000  0.000
      -0.000  0.022  0.000 -0.000 -0.008
      -0.000  0.000  0.022 -0.008 -0.000
       0.000 -0.000 -0.008  0.012 -0.000
       0.000 -0.008 -0.000 -0.000  0.012
     SPIN  2
     eigenvalues:
       0.008  0.008  0.011  0.026  0.027
     eigenvectors (columns):
      -0.007  0.000  1.000 -0.000  0.008
       0.006 -0.481  0.000  0.877  0.007
       0.475  0.006  0.010  0.007 -0.880
       0.880  0.011  0.003 -0.004  0.475
       0.011 -0.877  0.000 -0.481 -0.004
     occupation matrix ns (before diag.):
       0.011 -0.000 -0.000  0.000  0.000
      -0.000  0.022 -0.000 -0.000 -0.008
      -0.000 -0.000  0.022 -0.008  0.000
       0.000 -0.000 -0.008  0.012 -0.000
       0.000 -0.008  0.000 -0.000  0.012
     ------------------------ ATOM   13 ------------------------
     Tr[ns( 13)] (up, down, total) =   0.07893  0.07890  0.15783
     Atomic magnetic moment for atom  13 =   0.00003
     SPIN  1
     eigenvalues:
       0.008  0.008  0.011  0.026  0.027
     eigenvectors (columns):
      -0.010 -0.001 -1.000  0.000 -0.005
      -0.386 -0.278  0.008 -0.434 -0.765
      -0.276  0.390  0.005  0.763 -0.436
      -0.511  0.714  0.003 -0.416  0.235
      -0.716 -0.510  0.005  0.237  0.413
     occupation matrix ns (before diag.):
       0.011  0.000  0.000 -0.000 -0.000
       0.000  0.022  0.000 -0.000 -0.008
       0.000  0.000  0.022 -0.008 -0.000
      -0.000 -0.000 -0.008  0.012 -0.000
      -0.000 -0.008 -0.000 -0.000  0.012
     SPIN  2
     eigenvalues:
       0.008  0.008  0.011  0.026  0.027
     eigenvectors (columns):
      -0.008 -0.001 -1.000 -0.000 -0.008
      -0.383 -0.283  0.009 -0.450 -0.755
      -0.281  0.388  0.005  0.752 -0.452
      -0.519  0.707  0.002 -0.412  0.244
      -0.710 -0.518  0.003  0.247  0.408
     occupation matrix ns (before diag.):
       0.011  0.000  0.000 -0.000 -0.000
       0.000  0.022  0.000 -0.000 -0.008
       0.000  0.000  0.022 -0.008 -0.000
      -0.000 -0.000 -0.008  0.012 -0.000
      -0.000 -0.008 -0.000 -0.000  0.012
     ------------------------ ATOM   14 ------------------------
     Tr[ns( 14)] (up, down, total) =   4.88249  4.88021  9.76271
     Atomic magnetic moment for atom  14 =   0.00228
     SPIN  1
     eigenvalues:
       0.970  0.970  0.978  0.982  0.982
     eigenvectors (columns):
       0.000  0.000  1.000 -0.001 -0.002
       0.899  0.074  0.001  0.188  0.389
      -0.073  0.899 -0.000 -0.389  0.187
       0.036 -0.430  0.001 -0.813  0.391
      -0.431 -0.035  0.002  0.390  0.813
     occupation matrix ns (before diag.):
       0.978 -0.000 -0.000 -0.000 -0.000
      -0.000  0.972 -0.000 -0.000  0.005
      -0.000 -0.000  0.972  0.005 -0.000
      -0.000 -0.000  0.005  0.980  0.000
      -0.000  0.005 -0.000  0.000  0.980
     SPIN  2
     eigenvalues:
       0.968  0.968  0.979  0.983  0.983
     eigenvectors (columns):
       0.001 -0.000 -1.000 -0.001 -0.001
      -0.884 -0.317 -0.001  0.175  0.297
       0.317 -0.884  0.001 -0.296  0.173
      -0.116  0.323  0.000 -0.810  0.475
       0.324  0.116 -0.001  0.475  0.810
     occupation matrix ns (before diag.):
       0.979  0.000 -0.000  0.000 -0.000
       0.000  0.970  0.000 -0.000  0.005
      -0.000  0.000  0.970  0.005 -0.000
       0.000 -0.000  0.005  0.981  0.000
      -0.000  0.005 -0.000  0.000  0.981
     ------------------------ ATOM   15 ------------------------
     Tr[ns( 15)] (up, down, total) =   0.02728  0.02728  0.05456
     Atomic magnetic moment for atom  15 =  -0.00001
     SPIN  1
     eigenvalues:
       0.004  0.004  0.005  0.007  0.007
     eigenvectors (columns):
      -0.000  0.019 -1.000 -0.000  0.005
       0.515 -0.857 -0.017 -0.005  0.003
      -0.857 -0.515 -0.010  0.009  0.001
      -0.009  0.001  0.003 -0.848  0.530
       0.005  0.003  0.004  0.530  0.848
     occupation matrix ns (before diag.):
       0.005  0.000  0.000  0.000  0.000
       0.000  0.004  0.000  0.000  0.000
       0.000  0.000  0.004 -0.000  0.000
       0.000  0.000 -0.000  0.007  0.000
       0.000  0.000  0.000  0.000  0.007
     SPIN  2
     eigenvalues:
       0.004  0.004  0.005  0.007  0.007
     eigenvectors (columns):
       0.000  0.019 -1.000 -0.000  0.004
       0.514 -0.858 -0.016 -0.005  0.003
      -0.858 -0.514 -0.010  0.008  0.002
      -0.009  0.002  0.003 -0.874  0.486
       0.004  0.003  0.004  0.486  0.874
     occupation matrix ns (before diag.):
       0.005  0.000  0.000  0.000  0.000
       0.000  0.004  0.000  0.000  0.000
       0.000  0.000  0.004 -0.000  0.000
       0.000  0.000 -0.000  0.007  0.000
       0.000  0.000  0.000  0.000  0.007
     ------------------------ ATOM   16 ------------------------
     Tr[ns( 16)] (up, down, total) =   0.02716  0.02718  0.05434
     Atomic magnetic moment for atom  16 =  -0.00001
     SPIN  1
     eigenvalues:
       0.004  0.004  0.005  0.007  0.007
     eigenvectors (columns):
      -0.000 -0.001 -1.000  0.001  0.002
       0.631 -0.776  0.001 -0.004 -0.007
       0.776  0.631 -0.001  0.006 -0.004
       0.006  0.004  0.001 -0.829  0.559
       0.005 -0.006  0.002  0.559  0.829
     occupation matrix ns (before diag.):
       0.005 -0.000  0.000  0.000  0.000
      -0.000  0.004 -0.000 -0.000 -0.000
       0.000 -0.000  0.004 -0.000 -0.000
       0.000 -0.000 -0.000  0.007  0.000
       0.000 -0.000 -0.000  0.000  0.007
     SPIN  2
     eigenvalues:
       0.004  0.004  0.005  0.007  0.007
     eigenvectors (columns):
       0.000  0.001 -1.000  0.000  0.002
       0.755  0.655  0.001 -0.004 -0.006
       0.655 -0.755 -0.001  0.005 -0.004
       0.005 -0.005  0.001 -0.810  0.587
       0.006  0.005  0.002  0.587  0.810
     occupation matrix ns (before diag.):
       0.005 -0.000  0.000  0.000  0.000
      -0.000  0.004 -0.000 -0.000 -0.000
       0.000 -0.000  0.004 -0.000 -0.000
       0.000 -0.000 -0.000  0.007  0.000
       0.000 -0.000 -0.000  0.000  0.007
     ------------------------ ATOM   17 ------------------------
     Tr[ns( 17)] (up, down, total) =   0.02728  0.02729  0.05456
     Atomic magnetic moment for atom  17 =  -0.00001
     SPIN  1
     eigenvalues:
       0.004  0.004  0.005  0.007  0.007
     eigenvectors (columns):
      -0.000  0.020  1.000  0.000 -0.004
       0.486  0.874 -0.017 -0.006  0.002
       0.874 -0.486  0.010 -0.008 -0.004
       0.009  0.002 -0.001  0.937 -0.348
       0.006 -0.003  0.004  0.348  0.937
     occupation matrix ns (before diag.):
       0.005 -0.000  0.000  0.000 -0.000
      -0.000  0.004 -0.000 -0.000 -0.000
       0.000 -0.000  0.004 -0.000 -0.000
       0.000 -0.000 -0.000  0.007 -0.000
      -0.000 -0.000 -0.000 -0.000  0.007
     SPIN  2
     eigenvalues:
       0.004  0.004  0.005  0.007  0.007
     eigenvectors (columns):
      -0.000  0.019  1.000 -0.001 -0.004
       0.496  0.868 -0.016 -0.005  0.003
       0.868 -0.496  0.010 -0.008 -0.004
       0.008  0.002 -0.001  0.943 -0.334
       0.005 -0.004  0.004  0.334  0.943
     occupation matrix ns (before diag.):
       0.005 -0.000  0.000  0.000 -0.000
      -0.000  0.004 -0.000 -0.000  0.000
       0.000 -0.000  0.004 -0.000 -0.000
       0.000 -0.000 -0.000  0.007 -0.000
      -0.000  0.000 -0.000 -0.000  0.007
     ------------------------ ATOM   18 ------------------------
     Tr[ns( 18)] (up, down, total) =   0.07791  0.07776  0.15567
     Atomic magnetic moment for atom  18 =   0.00015
     SPIN  1
     eigenvalues:
       0.008  0.008  0.011  0.026  0.026
     eigenvectors (columns):
       0.000 -0.000  1.000 -0.000  0.000
      -0.446  0.151  0.000 -0.576 -0.669
      -0.151 -0.446  0.000  0.668 -0.576
      -0.284 -0.835 -0.000 -0.357  0.307
      -0.835  0.284  0.000  0.307  0.356
     occupation matrix ns (before diag.):
       0.011 -0.000 -0.000  0.000  0.000
      -0.000  0.022  0.000 -0.000 -0.008
      -0.000  0.000  0.022 -0.008 -0.000
       0.000 -0.000 -0.008  0.012 -0.000
       0.000 -0.008 -0.000 -0.000  0.012
     SPIN  2
     eigenvalues:
       0.008  0.008  0.011  0.026  0.026
     eigenvectors (columns):
       0.000  0.000  1.000 -0.000  0.000
       0.388 -0.267  0.000 -0.157 -0.868
       0.267  0.388  0.000  0.868 -0.157
       0.500  0.727 -0.001 -0.464  0.084
       0.727 -0.500  0.000  0.084  0.464
     occupation matrix ns (before diag.):
       0.011 -0.000 -0.000  0.000  0.000
      -0.000  0.022  0.000 -0.000 -0.008
      -0.000  0.000  0.022 -0.008  0.000
       0.000 -0.000 -0.008  0.012 -0.000
       0.000 -0.008  0.000 -0.000  0.012
     ------------------------ ATOM   19 ------------------------
     Tr[ns( 19)] (up, down, total) =   0.02728  0.02729  0.05457
     Atomic magnetic moment for atom  19 =  -0.00001
     SPIN  1
     eigenvalues:
       0.004  0.004  0.005  0.007  0.007
     eigenvectors (columns):
       0.000  0.021 -1.000  0.000 -0.004
       1.000  0.007  0.000  0.010  0.001
      -0.007  1.000  0.021 -0.001  0.004
       0.000 -0.004 -0.004 -0.182  0.983
       0.010  0.000  0.000 -0.983 -0.182
     occupation matrix ns (before diag.):
       0.005 -0.000 -0.000 -0.000  0.000
      -0.000  0.004  0.000 -0.000 -0.000
      -0.000  0.000  0.004  0.000 -0.000
      -0.000 -0.000  0.000  0.007 -0.000
       0.000 -0.000 -0.000 -0.000  0.007
     SPIN  2
     eigenvalues:
       0.004  0.004  0.005  0.007  0.007
     eigenvectors (columns):
       0.001  0.020 -1.000  0.000 -0.004
       1.000 -0.007  0.001  0.009  0.001
       0.007  1.000  0.020 -0.001  0.004
       0.000 -0.004 -0.004 -0.163  0.987
       0.010 -0.000  0.000 -0.987 -0.163
     occupation matrix ns (before diag.):
       0.005 -0.000 -0.000 -0.000  0.000
      -0.000  0.004 -0.000 -0.000 -0.000
      -0.000 -0.000  0.004  0.000  0.000
      -0.000 -0.000  0.000  0.007 -0.000
       0.000 -0.000  0.000 -0.000  0.007
     ------------------------ ATOM   20 ------------------------
     Tr[ns( 20)] (up, down, total) =   1.30103  1.24981  2.55085
     Atomic magnetic moment for atom  20 =   0.05122
     SPIN  1
     eigenvalues:
       0.206  0.206  0.295  0.297  0.297
     eigenvectors (columns):
      -0.000 -0.000 -1.000 -0.016 -0.027
      -0.018 -0.741 -0.020  0.141  0.656
      -0.741  0.018 -0.006  0.656 -0.141
       0.671 -0.016 -0.007  0.725 -0.155
       0.016  0.671 -0.022  0.155  0.724
     occupation matrix ns (before diag.):
       0.295 -0.000 -0.000 -0.000 -0.000
      -0.000  0.247 -0.000 -0.000  0.045
      -0.000 -0.000  0.247  0.045 -0.000
      -0.000 -0.000  0.045  0.256 -0.000
      -0.000  0.045 -0.000 -0.000  0.256
     SPIN  2
     eigenvalues:
       0.204  0.204  0.270  0.271  0.300
     eigenvectors (columns):
      -0.000 -0.000 -0.001 -0.000  1.000
       0.175 -0.715 -0.374  0.565 -0.001
       0.715  0.175 -0.565 -0.373 -0.001
      -0.658 -0.161 -0.614 -0.406 -0.001
      -0.161  0.658 -0.406  0.614 -0.000
     occupation matrix ns (before diag.):
       0.300 -0.000 -0.000 -0.000 -0.000
      -0.000  0.235 -0.000 -0.000  0.033
      -0.000 -0.000  0.235  0.033 -0.000
      -0.000 -0.000  0.033  0.240 -0.000
      -0.000  0.033 -0.000 -0.000  0.240
     ------------------------ ATOM   21 ------------------------
     Tr[ns( 21)] (up, down, total) =   1.07880  1.06194  2.14074
     Atomic magnetic moment for atom  21 =   0.01686
     SPIN  1
     eigenvalues:
       0.186  0.194  0.195  0.250  0.254
     eigenvectors (columns):
      -0.284  0.004  0.097 -0.003  0.954
       0.002 -0.738  0.034 -0.674 -0.002
       0.550 -0.034 -0.798 -0.002  0.245
       0.785  0.030  0.594 -0.001  0.174
      -0.003  0.673 -0.030 -0.739 -0.003
     occupation matrix ns (before diag.):
       0.248 -0.000  0.015  0.012 -0.000
      -0.000  0.220 -0.000  0.000  0.027
       0.015 -0.000  0.196 -0.002  0.000
       0.012  0.000 -0.002  0.191  0.000
      -0.000  0.027  0.000  0.000  0.225
     SPIN  2
     eigenvalues:
       0.173  0.194  0.195  0.247  0.253
     eigenvectors (columns):
[...]
       0.000 -0.322  0.804  0.272 -0.420
       0.000 -0.186  0.465 -0.470  0.727
      -0.000 -0.465 -0.186 -0.727 -0.470
     occupation matrix ns (before diag.):
       0.223  0.000  0.000 -0.000 -0.000
       0.000  0.277 -0.000 -0.000 -0.082
       0.000 -0.000  0.277 -0.082  0.000
      -0.000 -0.000 -0.082  0.371 -0.000
      -0.000 -0.082  0.000 -0.000  0.371
     ------------------------ ATOM   28 ------------------------
     Tr[ns( 28)] (up, down, total) =   1.81942  2.18218  4.00160
     Atomic magnetic moment for atom  28 =  -0.36276
     SPIN  1
     eigenvalues:
       0.241  0.348  0.354  0.434  0.442
     eigenvectors (columns):
      -0.999 -0.000 -0.003 -0.000 -0.037
      -0.024  0.375  0.621 -0.315  0.611
      -0.014 -0.672  0.345  0.555  0.348
       0.012 -0.557  0.344 -0.669 -0.352
       0.021  0.311  0.614  0.382 -0.616
     occupation matrix ns (before diag.):
       0.242 -0.005 -0.003  0.003  0.004
      -0.005  0.394  0.006 -0.001 -0.043
      -0.003  0.006  0.386 -0.043 -0.000
       0.003 -0.001 -0.043  0.399 -0.000
       0.004 -0.043 -0.000 -0.000  0.399
     SPIN  2
     eigenvalues:
       0.285  0.412  0.422  0.531  0.532
     eigenvectors (columns):
       0.999 -0.000  0.048  0.019  0.000
      -0.033 -0.225  0.383  0.778  0.443
      -0.019  0.390  0.221  0.445 -0.775
      -0.017  0.773  0.448 -0.220  0.391
      -0.030 -0.446  0.776 -0.385 -0.224
     occupation matrix ns (before diag.):
       0.285  0.006  0.003  0.002  0.003
       0.006  0.509  0.001  0.002 -0.045
       0.003  0.001  0.508 -0.047  0.002
       0.002  0.002 -0.047  0.438  0.003
       0.003 -0.045  0.002  0.003  0.441
     ------------------------ ATOM   29 ------------------------
     Tr[ns( 29)] (up, down, total) =   1.77931  2.22710  4.00641
     Atomic magnetic moment for atom  29 =  -0.44779
     SPIN  1
     eigenvalues:
       0.241  0.339  0.340  0.430  0.430
     eigenvectors (columns):
       1.000  0.001 -0.000 -0.000 -0.000
       0.000 -0.734 -0.233 -0.637 -0.006
       0.000 -0.233  0.734  0.005 -0.638
       0.000 -0.192  0.609 -0.008  0.770
       0.000 -0.608 -0.192  0.770  0.008
     occupation matrix ns (before diag.):
       0.241 -0.000 -0.000 -0.000 -0.000
      -0.000  0.376 -0.000  0.000 -0.044
      -0.000 -0.000  0.376 -0.044 -0.000
      -0.000  0.000 -0.044  0.393 -0.000
      -0.000 -0.044 -0.000 -0.000  0.393
     SPIN  2
     eigenvalues:
       0.294  0.431  0.431  0.536  0.536
     eigenvectors (columns):
       1.000  0.000 -0.000  0.000  0.000
      -0.000  0.210 -0.354 -0.385 -0.826
      -0.000 -0.355 -0.210  0.825 -0.385
      -0.000 -0.784 -0.464 -0.374  0.174
      -0.000  0.464 -0.784  0.175  0.373
     occupation matrix ns (before diag.):
       0.294  0.000  0.000  0.000  0.000
       0.000  0.518  0.000  0.000 -0.039
       0.000  0.000  0.518 -0.039  0.000
       0.000  0.000 -0.039  0.449  0.000
       0.000 -0.039  0.000  0.000  0.449
     ------------------------ ATOM   30 ------------------------
     Tr[ns( 30)] (up, down, total) =   1.81813  2.18342  4.00156
     Atomic magnetic moment for atom  30 =  -0.36529
     SPIN  1
     eigenvalues:
       0.241  0.348  0.353  0.435  0.442
     eigenvectors (columns):
       0.999  0.000  0.003  0.000  0.036
      -0.024 -0.387  0.618 -0.317  0.606
       0.014 -0.664 -0.363 -0.555 -0.344
      -0.012 -0.550 -0.353  0.667  0.357
       0.020 -0.326  0.601  0.383 -0.621
     occupation matrix ns (before diag.):
       0.242  0.005 -0.003  0.002 -0.004
       0.005  0.393 -0.005  0.001 -0.044
      -0.003 -0.005  0.386 -0.043  0.000
       0.002  0.001 -0.043  0.399  0.000
      -0.004 -0.044  0.000  0.000  0.398
     SPIN  2
     eigenvalues:
       0.285  0.412  0.422  0.531  0.533
     eigenvectors (columns):
       0.999  0.000  0.048  0.019 -0.000
       0.033  0.225 -0.382 -0.780 -0.441
      -0.019  0.390  0.220  0.443 -0.777
      -0.017  0.774  0.447 -0.218  0.392
       0.030  0.445 -0.777  0.385  0.222
     occupation matrix ns (before diag.):
       0.286 -0.006  0.004  0.002 -0.003
      -0.006  0.509 -0.001 -0.002 -0.045
       0.004 -0.001  0.509 -0.047 -0.002
       0.002 -0.002 -0.047  0.438 -0.003
      -0.003 -0.045 -0.002 -0.003  0.442
     ------------------------ ATOM   31 ------------------------
     Tr[ns( 31)] (up, down, total) =   2.01626  1.92579  3.94205
     Atomic magnetic moment for atom  31 =   0.09047
     SPIN  1
     eigenvalues:
       0.403  0.403  0.403  0.403  0.404
     eigenvectors (columns):
      -0.006 -0.025 -0.008  0.006 -1.000
       0.594 -0.589 -0.296 -0.460  0.011
      -0.561 -0.606  0.496 -0.267  0.013
      -0.403 -0.394 -0.702  0.435  0.021
       0.412 -0.361  0.416  0.726  0.008
     occupation matrix ns (before diag.):
       0.404 -0.000 -0.000 -0.000 -0.000
      -0.000  0.403 -0.000 -0.000 -0.000
      -0.000 -0.000  0.403 -0.000 -0.000
      -0.000 -0.000 -0.000  0.403  0.000
      -0.000 -0.000 -0.000  0.000  0.403
     SPIN  2
     eigenvalues:
       0.366  0.377  0.377  0.403  0.403
     eigenvectors (columns):
       1.000 -0.000 -0.001 -0.000 -0.000
      -0.001  0.341 -0.656 -0.226 -0.634
      -0.000 -0.656 -0.341  0.634 -0.226
      -0.000 -0.598 -0.310 -0.696  0.249
      -0.000  0.310 -0.598  0.249  0.696
     occupation matrix ns (before diag.):
       0.366  0.000  0.000  0.000 -0.000
       0.000  0.389  0.000  0.000 -0.013
       0.000  0.000  0.389 -0.013  0.000
       0.000  0.000 -0.013  0.391  0.000
      -0.000 -0.013  0.000  0.000  0.391
     ------------------------ ATOM   32 ------------------------
     Tr[ns( 32)] (up, down, total) =   1.81766  2.18388  4.00154
     Atomic magnetic moment for atom  32 =  -0.36621
     SPIN  1
     eigenvalues:
       0.241  0.347  0.353  0.434  0.442
     eigenvectors (columns):
      -0.999  0.000 -0.003 -0.000 -0.036
      -0.000 -0.769  0.032 -0.638 -0.002
       0.028 -0.030 -0.717  0.001 -0.696
      -0.024 -0.031 -0.696  0.001  0.717
      -0.000 -0.637  0.029  0.770 -0.001
     occupation matrix ns (before diag.):
       0.242 -0.000  0.005 -0.005 -0.000
      -0.000  0.383 -0.000 -0.000 -0.043
       0.005 -0.000  0.396 -0.044  0.000
      -0.005 -0.000 -0.044  0.398 -0.000
      -0.000 -0.043  0.000 -0.000  0.399
     SPIN  2
     eigenvalues:
       0.285  0.412  0.422  0.531  0.533
     eigenvectors (columns):
       0.999  0.000 -0.048 -0.019  0.000
      -0.000  0.450  0.001  0.007  0.893
       0.038 -0.001  0.441  0.897 -0.007
       0.034 -0.004  0.896 -0.442  0.004
      -0.000  0.893  0.004 -0.004 -0.450
     occupation matrix ns (before diag.):
       0.286  0.000 -0.007 -0.004 -0.000
       0.000  0.508  0.000  0.000 -0.048
      -0.007  0.000  0.510 -0.043 -0.000
      -0.004  0.000 -0.043  0.443  0.000
      -0.000 -0.048 -0.000  0.000  0.437

     Number of occupied Hubbard levels =  117.3996

     Number of k-points >= 100: set verbosity='high' to print the bands.

     the Fermi energy is     5.2374 ev

!    total energy              =   -9840.90238593 Ry
     estimated scf accuracy    <       0.00000023 Ry
     smearing contrib. (-TS)   =       0.00189923 Ry
     internal energy E=F+TS    =   -9840.90428516 Ry

     The total energy is F=E-TS. E is the sum of the following terms:
     one-electron contribution =  -36284.97142705 Ry
     hartree contribution      =   18228.51726961 Ry
     xc contribution           =    -970.42179553 Ry
     ewald contribution        =   14745.83287630 Ry
     Hubbard energy            =       9.10027134 Ry
     one-center paw contrib.   =   -5568.96147982 Ry

     total magnetization       =     4.01 Bohr mag/cell
     absolute magnetization    =    15.53 Bohr mag/cell

     convergence has been achieved in  33 iterations

     negative rho (up, down):  1.914E-03 6.229E-03

     Forces acting on atoms (cartesian axes, Ry/au):

     atom    1 type  1   force =     0.00000427    0.00008819    0.00015811
     atom    2 type  1   force =     0.00007494   -0.00003484    0.00015690
     atom    3 type  1   force =    -0.00006670   -0.00003620    0.00015843
     atom    4 type  1   force =    -0.00006633   -0.00003529    0.00015912
     atom    5 type  1   force =     0.00000418    0.00008505    0.00015989
     atom    6 type  1   force =     0.00007482   -0.00003657    0.00015805
     atom    7 type  2   force =    -0.00000084    0.00000240    0.00047925
     atom    8 type  2   force =     0.00000105   -0.00020210   -0.00029683
     atom    9 type  2   force =     0.00017989    0.00010473   -0.00029537
     atom   10 type  2   force =    -0.00017647    0.00010425   -0.00029860
     atom   11 type  2   force =     0.00010771   -0.00006252   -0.00040949
     atom   12 type  2   force =    -0.00000317    0.00011731   -0.00040875
     atom   13 type  2   force =    -0.00009691   -0.00005743   -0.00040988
     atom   14 type  2   force =     0.00000323    0.00000498    0.00003490
     atom   15 type  2   force =    -0.00014265   -0.00010712    0.00009035
     atom   16 type  2   force =    -0.00000928    0.00000982    0.00032660
     atom   17 type  2   force =     0.00011550   -0.00008063    0.00011013
     atom   18 type  2   force =    -0.00000656   -0.00000498    0.00012771
     atom   19 type  2   force =     0.00000604    0.00014270    0.00014090
     atom   20 type  2   force =     0.00000388    0.00000132    0.00047839
     atom   21 type  2   force =     0.00000395   -0.00020799   -0.00029939
     atom   22 type  2   force =     0.00018174    0.00010630   -0.00030070
     atom   23 type  2   force =    -0.00017792    0.00010810   -0.00029751
     atom   24 type  2   force =     0.00009609   -0.00006366   -0.00040513
     atom   25 type  2   force =    -0.00000036    0.00011325   -0.00040408
     atom   26 type  2   force =    -0.00011431   -0.00006872   -0.00040486
     atom   27 type  2   force =     0.00000220    0.00000412    0.00003509
     atom   28 type  2   force =    -0.00013959   -0.00006319    0.00015243
     atom   29 type  2   force =     0.00000241   -0.00002668    0.00032843
     atom   30 type  2   force =     0.00015231   -0.00009003    0.00013094
     atom   31 type  2   force =     0.00000240   -0.00000377    0.00010851
     atom   32 type  2   force =    -0.00001391    0.00015793    0.00009632
     atom   33 type  3   force =    -0.00016665    0.00011503    0.00027052
     atom   34 type  3   force =     0.00017125    0.00011748    0.00026994
     atom   35 type  3   force =    -0.00000901   -0.00001938   -0.00039853
     atom   36 type  3   force =     0.00012805    0.00008092    0.00010461
     atom   37 type  3   force =     0.00000040   -0.00017861    0.00026959
     atom   38 type  3   force =     0.00000027   -0.00000171    0.00024559
     atom   39 type  3   force =    -0.00005716   -0.00003030   -0.00025096
     atom   40 type  3   force =    -0.00000798    0.00006312   -0.00026243
     atom   41 type  3   force =     0.00006082   -0.00004505   -0.00027299
     atom   42 type  3   force =    -0.00000147   -0.00000918    0.00014726
     atom   43 type  3   force =    -0.00012867    0.00007908    0.00010244
     atom   44 type  3   force =    -0.00000283   -0.00015615    0.00010401
     atom   45 type  3   force =    -0.00016759    0.00011420    0.00026916
     atom   46 type  3   force =     0.00017149    0.00011617    0.00026921
     atom   47 type  3   force =     0.00000929   -0.00000939   -0.00035368
     atom   48 type  3   force =     0.00012630    0.00007755    0.00010281
     atom   49 type  3   force =     0.00000014   -0.00017899    0.00026887
     atom   50 type  3   force =     0.00000306   -0.00000162    0.00024745
     atom   51 type  3   force =    -0.00006401   -0.00003535   -0.00029219
     atom   52 type  3   force =     0.00000548    0.00004249   -0.00028418
     atom   53 type  3   force =     0.00005775   -0.00002252   -0.00027329
     atom   54 type  3   force =     0.00000039   -0.00000651    0.00015020
     atom   55 type  3   force =    -0.00013008    0.00007774    0.00010446
     atom   56 type  3   force =    -0.00000085   -0.00015776    0.00010231

     Total force =     0.002191     Total SCF correction =     0.000627
     SCF correction compared to forces is large: reduce conv_thr to get better values


     Computing stress (Cartesian axis) and pressure


     negative rho (up, down):  1.914E-03 6.229E-03
          total   stress  (Ry/bohr**3)                   (kbar)     P=       -1.76
  -0.00001294  -0.00000001   0.00000006           -1.90       -0.00        0.01
  -0.00000001  -0.00001291   0.00000011           -0.00       -1.90        0.02
   0.00000006   0.00000011  -0.00000999            0.01        0.02       -1.47


     BFGS Geometry Optimization
     Energy error            =      4.8E-06 Ry
     Gradient error          =      4.8E-04 Ry/Bohr

     bfgs converged in   1 scf cycles and   0 bfgs steps
     (criteria: energy <  1.0E-04 Ry, force <  1.0E-03 Ry/Bohr)

     End of BFGS Geometry Optimization

     Final energy             =   -9840.9023859276 Ry
Begin final coordinates

ATOMIC_POSITIONS (angstrom)
Ti               1.1238451775        2.4777635114       15.8098259596
Ti              -0.4358226826        5.1791884968       15.8098304566
Ti               8.9631061842        5.1791927050       15.8098313439
Ti               2.6835338368        5.1791926486       15.8098273630
Ti               7.4034148189        2.4777770604       15.8098311180
Ti               5.8437487600        5.1791974161       15.8098342466
Nb               1.1238573829        0.6532774566       13.3575792843
Nb               4.2636498919        0.6531576545       13.3375920521
Nb              -0.4459101719        3.3724556146       13.3375811382
Nb               2.6936618521        3.3724541344       13.3375885400
Nb              -0.4478257122        1.5608146217       10.6866824831
Nb              -2.0158596453        4.2767247653       10.6866841066
Nb               2.6956520248        1.5608059620       10.6867209069
Nb               4.2636339559        2.4659796220       15.8115007305
Nb               2.6955401987        5.1862501730        8.1862428306
Nb               4.2637533721        2.4661770638        8.1846040750
Nb              -0.4477196533        5.1863387783        8.1863794354
Nb               1.1239230921        4.2788530805       10.6683792211
Nb               1.1239762577        2.4640876558        8.1863850878
Nb               7.4034425629        0.6532903467       13.3575669633
Nb              10.5432256789        0.6531731965       13.3375836586
Nb               5.8336617736        3.3724632224       13.3375797498
Nb               8.9732410919        3.3724603825       13.3375811620
Nb               5.8317797460        1.5607871788       10.6866731529
Nb               4.2637070241        4.2767686612       10.6866659754
Nb               8.9751914743        1.5607946568       10.6866402259
Nb              10.5432083245        2.4659804423       15.8114943452
Nb               8.9751779205        5.1862931323        8.1863951752
Nb              10.5432704965        2.4661513184        8.1844560159
Nb               5.8319488286        5.1862085939        8.1862570122
Nb               7.4034996802        4.2788671976       10.6684651522
Nb               7.4034783486        2.4642497682        8.1862551200
C               -0.4331323385        1.5521685856       14.7041641079
C                2.6808305904        1.5521597669       14.7041666355
C                1.1239413199        0.6534181496        9.3368195957
C                2.6944465969        5.1855565122       12.0043287512
C               -2.0159242461        4.2936443874       14.7041656587
C                1.1238650869        4.2787284310       14.7000078937
C               -0.4449211930        3.3731133428        9.3373421975
C                4.2637210256        0.6521833886        9.3374014320
C                2.6927741472        3.3731317922        9.3373943856
C                4.2636964601        2.4660792129       12.0058972788
C               -0.4466293814        5.1855518103       12.0043454528
C                1.1238949919        2.4653239569       12.0043451584
C                5.8464455344        1.5521722130       14.7041565969
C                8.9603996283        1.5521695998       14.7041613050
C                7.4034709905        0.6533955742        9.3366682824
C                8.9740299735        5.1855648089       12.0043551234
C                4.2636531141        4.2936506602       14.7041585538
C                7.4034353529        4.2787383204       14.7000037015
C                5.8346546279        3.3731248070        9.3374875927
C               10.5432718202        0.6522240142        9.3374278901
C                8.9723684650        3.3731100406        9.3374418193
C               10.5432478681        2.4660683348       12.0058730073
C                5.8329333679        5.1855711120       12.0043389976
C                7.4034731673        2.4653222361       12.0043399481
End final coordinates



     Writing all to output data dir ./out/mxns.save/ :
     XML data file, charge density, pseudopotentials, collected wavefunctions
 
     init_run     :    217.46s CPU    226.74s WALL (       1 calls)
     electrons    :  18964.97s CPU  19257.70s WALL (       1 calls)
     forces       :   5815.39s CPU   5874.22s WALL (       1 calls)
     stress       :   7586.40s CPU   7667.52s WALL (       1 calls)

     Called by init_run:
     wfcinit      :    215.39s CPU    224.46s WALL (       1 calls)
     potinit      :      0.88s CPU      0.97s WALL (       1 calls)
     hinit0       :      0.20s CPU      0.23s WALL (       1 calls)

     Called by electrons:
     c_bands      :  17567.12s CPU  17818.11s WALL (      33 calls)
     sum_band     :   1345.78s CPU   1380.18s WALL (      33 calls)
     v_of_rho     :     15.22s CPU     16.73s WALL (      34 calls)
     newd         :      8.72s CPU     12.93s WALL (      34 calls)
     PAW_pot      :     12.77s CPU     12.86s WALL (      34 calls)
     mix_rho      :     14.40s CPU     15.65s WALL (      33 calls)

     Called by c_bands:
     init_us_2    :    143.11s CPU    145.78s WALL (    4608 calls)
     cegterg      :  16193.95s CPU  16423.28s WALL (    2114 calls)

     Called by *egterg:
     cdiaghg      :   1632.85s CPU   1650.83s WALL (   29750 calls)
     h_psi        :   9779.91s CPU   9913.26s WALL (   29814 calls)
     s_psi        :   1076.83s CPU   1090.34s WALL (   30134 calls)
     g_psi        :     22.63s CPU     22.96s WALL (   27636 calls)

     Called by h_psi:
     h_psi:calbec :   1024.24s CPU   1037.19s WALL (   29814 calls)
     vloc_psi     :   6045.52s CPU   6126.95s WALL (   29814 calls)
     add_vuspsi   :   1048.06s CPU   1061.90s WALL (   29814 calls)
     vhpsi        :   1602.55s CPU   1625.55s WALL (   29814 calls)

     General routines
     calbec       :   4213.26s CPU   4260.18s WALL (  410028 calls)
     fft          :     15.32s CPU     16.55s WALL (     888 calls)
     ffts         :      6.07s CPU      6.50s WALL (    4070 calls)
     fftw         :   4372.20s CPU   4423.63s WALL ( 4817434 calls)
     interpolate  :      1.17s CPU      1.28s WALL (      68 calls)
 
     Parallel routines

     Hubbard U routines
     new_ns       :     92.05s CPU    103.98s WALL (      33 calls)
     vhpsi        :   1602.55s CPU   1625.55s WALL (   29814 calls)
     force_hub    :   5767.97s CPU   5825.87s WALL (       1 calls)
                                        0.00s GPU  (       1 calls)
     stres_hub    :   7423.81s CPU   7503.02s WALL (       1 calls)
                                        0.00s GPU  (       1 calls)
 
     PWSCF        :      9h 3m CPU      9h11m WALL

 
   This run was terminated on:  16:10:18  19May2026            

=------------------------------------------------------------------------------=
   JOB DONE.
=------------------------------------------------------------------------------=
